M 0.00000 0 (559.03, 284.46, 0.00), (559.03, 284.46), 0.00
M 0.00000 1 (559.03, 284.46, 0.00), (559.03, 284.46), 0.00
M 0.00000 2 (672.46, 139.92, 0.00), (672.46, 139.92), 0.00
M 0.00000 3 (555.80, 131.52, 0.00), (555.80, 131.52), 0.00
M 0.00000 4 (436.53, 136.14, 0.00), (436.53, 136.14), 0.00
M 0.00000 5 (431.16, 278.29, 0.00), (431.16, 278.29), 0.00
M 0.00000 6 (493.70, 472.69, 0.00), (434.44, 399.84), 0.00 
M 0.00000 7 (560.16, 399.13, 0.00), (560.06, 399.13), 0.00
M 0.00000 8 (680.99, 401.11, 0.00), (680.99, 401.11), 0.00
M 0.00000 9 (671.28, 269.07, 0.00), (671.28, 269.07), 0.00
M 0.00000 10 (392.59, 457.99, 0.00), (554.03, 284.46), 0.00
M 0.00000 11 (447.48, 65.13, 0.00), (553.03, 284.46), 0.00
M 0.00000 12 (350.84, 159.66, 0.00), (672.46, 139.92), 0.00
M 0.00000 13 (352.99, 266.81, 0.00), (559.80, 131.52), 0.00
M 0.00000 14 (869.75, 239.50, 0.00), (433.53, 136.14), 0.00
M 0.00000 15 (741.60, 220.59, 0.00), (438.16, 278.29), 0.00
M 0.00000 16 (752.11, 361.35, 0.00), (434.44, 399.84), 0.00
M 0.00000 17 (617.65, 474.97, 0.00), (567.16, 399.13), 0.00
M 0.00000 18 (434.44, 399.84, 0.00), (686.99, 401.11), 0.00
M 0.00000 19 (361.35, 352.99, 0.00), (675.28, 269.07), 0.00
M 0.00000 20 (468.49, 554.63, 0.00), (554.03, 284.46), 0.00
M 0.00000 21 (598.75, 546.22, 0.00), (558.03, 284.46), 0.00
M 0.00000 22 (701.69, 502.11, 0.00), (673.46, 139.92), 0.00
M 0.00000 23 (771.01, 422.27, 0.00), (551.80, 131.52), 0.00
M 0.00000 24 (815.13, 294.12, 0.00), (434.53, 136.14), 0.00
M 0.00000 25 (802.53, 155.46, 0.00), (430.06, 278.29), 0.00
M 0.00000 26 (731.10, 73.53, 0.00), (433.44, 399.84), 0.00
M 0.00000 27 (289.92, 79.83, 0.00), (566.16, 399.13), 0.00
M 0.00000 28 (237.40, 300.42, 0.00), (686.99, 401.11), 0.00
M 0.00000 29 (300.42, 483.20, 0.00), (674.28, 269.07), 0.00
M 0.00000 30 (329.83, 563.03, 0.00), (554.03, 284.46), 0.00
M 0.00000 31 (743.71, 558.83, 0.00), (558.03, 284.46), 0.00
M 0.00000 32 (829.84, 491.60, 0.00), (673.46, 139.92), 0.00
M 0.00000 33 (859.25, 367.65, 0.00), (551.80, 131.52), 0.00
M 0.00000 34 (611.35, 79.83, 0.00), (434.53, 136.14), 0.00
M 0.00000 35 (827.74, 79.83, 0.00), (430.06, 278.29), 0.00
M 0.00000 36 (533.62, 31.51, 0.00), (433.44, 399.84), 0.00
M 0.00000 37 (191.18, 94.54, 0.00), (566.16, 399.13), 0.00
M 0.00000 38 (178.57, 239.50, 0.00), (686.99, 401.11), 0.00
M 0.00000 39 (210.09, 439.08, 0.00), (674.28, 269.07), 0.00
s 0.000000000 _1_ RTR  --- 0 AODV 44 [0 0 0 0] [energy 100.000000] ------- [1:255 -1:255 1 0] [0x1 1 [1 2] 4.000000] (HELLO)
s 0.000000000 _2_ RTR  --- 0 AODV 44 [0 0 0 0] [energy 100.000000] ------- [2:255 -1:255 1 0] [0x1 1 [2 2] 4.000000] (HELLO)
s 0.000000000 _3_ RTR  --- 0 AODV 44 [0 0 0 0] [energy 100.000000] ------- [3:255 -1:255 1 0] [0x1 1 [3 2] 4.000000] (HELLO)
s 0.000000000 _4_ RTR  --- 0 AODV 44 [0 0 0 0] [energy 100.000000] ------- [4:255 -1:255 1 0] [0x1 1 [4 2] 4.000000] (HELLO)
s 0.000000000 _5_ RTR  --- 0 AODV 44 [0 0 0 0] [energy 100.000000] ------- [5:255 -1:255 1 0] [0x1 1 [5 2] 4.000000] (HELLO)
s 0.000000000 _6_ RTR  --- 0 AODV 44 [0 0 0 0] [energy 100.000000] ------- [6:255 -1:255 1 0] [0x1 1 [6 2] 4.000000] (HELLO)
s 0.000000000 _7_ RTR  --- 0 AODV 44 [0 0 0 0] [energy 100.000000] ------- [7:255 -1:255 1 0] [0x1 1 [7 2] 4.000000] (HELLO)
s 0.000000000 _8_ RTR  --- 0 AODV 44 [0 0 0 0] [energy 100.000000] ------- [8:255 -1:255 1 0] [0x1 1 [8 2] 4.000000] (HELLO)
s 0.000000000 _9_ RTR  --- 0 AODV 44 [0 0 0 0] [energy 100.000000] ------- [9:255 -1:255 1 0] [0x1 1 [9 2] 4.000000] (HELLO)
s 0.000000000 _10_ RTR  --- 0 AODV 44 [0 0 0 0] [energy 100.000000] ------- [10:255 -1:255 1 0] [0x1 1 [10 2] 4.000000] (HELLO)
s 0.000000000 _11_ RTR  --- 0 AODV 44 [0 0 0 0] [energy 100.000000] ------- [11:255 -1:255 1 0] [0x1 1 [11 2] 4.000000] (HELLO)
s 0.000000000 _12_ RTR  --- 0 AODV 44 [0 0 0 0] [energy 100.000000] ------- [12:255 -1:255 1 0] [0x1 1 [12 2] 4.000000] (HELLO)
s 0.000000000 _13_ RTR  --- 0 AODV 44 [0 0 0 0] [energy 100.000000] ------- [13:255 -1:255 1 0] [0x1 1 [13 2] 4.000000] (HELLO)
s 0.000000000 _14_ RTR  --- 0 AODV 44 [0 0 0 0] [energy 100.000000] ------- [14:255 -1:255 1 0] [0x1 1 [14 2] 4.000000] (HELLO)
s 0.000000000 _15_ RTR  --- 0 AODV 44 [0 0 0 0] [energy 100.000000] ------- [15:255 -1:255 1 0] [0x1 1 [15 2] 4.000000] (HELLO)
s 0.000000000 _16_ RTR  --- 0 AODV 44 [0 0 0 0] [energy 100.000000] ------- [16:255 -1:255 1 0] [0x1 1 [16 2] 4.000000] (HELLO)
s 0.000000000 _17_ RTR  --- 0 AODV 44 [0 0 0 0] [energy 100.000000] ------- [17:255 -1:255 1 0] [0x1 1 [17 2] 4.000000] (HELLO)
s 0.000000000 _18_ RTR  --- 0 AODV 44 [0 0 0 0] [energy 100.000000] ------- [18:255 -1:255 1 0] [0x1 1 [18 2] 4.000000] (HELLO)
s 0.000000000 _19_ RTR  --- 0 AODV 44 [0 0 0 0] [energy 100.000000] ------- [19:255 -1:255 1 0] [0x1 1 [19 2] 4.000000] (HELLO)
s 0.000000000 _20_ RTR  --- 0 AODV 44 [0 0 0 0] [energy 100.000000] ------- [20:255 -1:255 1 0] [0x1 1 [20 2] 4.000000] (HELLO)
s 0.000000000 _21_ RTR  --- 0 AODV 44 [0 0 0 0] [energy 100.000000] ------- [21:255 -1:255 1 0] [0x1 1 [21 2] 4.000000] (HELLO)
s 0.000000000 _22_ RTR  --- 0 AODV 44 [0 0 0 0] [energy 100.000000] ------- [22:255 -1:255 1 0] [0x1 1 [22 2] 4.000000] (HELLO)
s 0.000000000 _23_ RTR  --- 0 AODV 44 [0 0 0 0] [energy 100.000000] ------- [23:255 -1:255 1 0] [0x1 1 [23 2] 4.000000] (HELLO)
s 0.000000000 _24_ RTR  --- 0 AODV 44 [0 0 0 0] [energy 100.000000] ------- [24:255 -1:255 1 0] [0x1 1 [24 2] 4.000000] (HELLO)
s 0.000000000 _25_ RTR  --- 0 AODV 44 [0 0 0 0] [energy 100.000000] ------- [25:255 -1:255 1 0] [0x1 1 [25 2] 4.000000] (HELLO)
s 0.000000000 _26_ RTR  --- 0 AODV 44 [0 0 0 0] [energy 100.000000] ------- [26:255 -1:255 1 0] [0x1 1 [26 2] 4.000000] (HELLO)
s 0.000000000 _27_ RTR  --- 0 AODV 44 [0 0 0 0] [energy 100.000000] ------- [27:255 -1:255 1 0] [0x1 1 [27 2] 4.000000] (HELLO)
s 0.000000000 _28_ RTR  --- 0 AODV 44 [0 0 0 0] [energy 100.000000] ------- [28:255 -1:255 1 0] [0x1 1 [28 2] 4.000000] (HELLO)
s 0.000000000 _29_ RTR  --- 0 AODV 44 [0 0 0 0] [energy 100.000000] ------- [29:255 -1:255 1 0] [0x1 1 [29 2] 4.000000] (HELLO)
s 0.000000000 _30_ RTR  --- 0 AODV 44 [0 0 0 0] [energy 100.000000] ------- [30:255 -1:255 1 0] [0x1 1 [30 2] 4.000000] (HELLO)
s 0.000000000 _31_ RTR  --- 0 AODV 44 [0 0 0 0] [energy 100.000000] ------- [31:255 -1:255 1 0] [0x1 1 [31 2] 4.000000] (HELLO)
s 0.000000000 _32_ RTR  --- 0 AODV 44 [0 0 0 0] [energy 100.000000] ------- [32:255 -1:255 1 0] [0x1 1 [32 2] 4.000000] (HELLO)
s 0.000000000 _33_ RTR  --- 0 AODV 44 [0 0 0 0] [energy 100.000000] ------- [33:255 -1:255 1 0] [0x1 1 [33 2] 4.000000] (HELLO)
s 0.000000000 _34_ RTR  --- 0 AODV 44 [0 0 0 0] [energy 100.000000] ------- [34:255 -1:255 1 0] [0x1 1 [34 2] 4.000000] (HELLO)
s 0.000000000 _35_ RTR  --- 0 AODV 44 [0 0 0 0] [energy 100.000000] ------- [35:255 -1:255 1 0] [0x1 1 [35 2] 4.000000] (HELLO)
s 0.000000000 _36_ RTR  --- 0 AODV 44 [0 0 0 0] [energy 100.000000] ------- [36:255 -1:255 1 0] [0x1 1 [36 2] 4.000000] (HELLO)
s 0.000000000 _37_ RTR  --- 0 AODV 44 [0 0 0 0] [energy 100.000000] ------- [37:255 -1:255 1 0] [0x1 1 [37 2] 4.000000] (HELLO)
s 0.000000000 _38_ RTR  --- 0 AODV 44 [0 0 0 0] [energy 100.000000] ------- [38:255 -1:255 1 0] [0x1 1 [38 2] 4.000000] (HELLO)
s 0.000000000 _39_ RTR  --- 0 AODV 44 [0 0 0 0] [energy 100.000000] ------- [39:255 -1:255 1 0] [0x1 1 [39 2] 4.000000] (HELLO)
s 0.000000000 _0_ RTR  --- 0 PHENOM 0 [0 0 0 0] [energy 100.000000] [0 1 12 2](CO)
s 0.000075000 _12_ MAC  --- 0 AODV 96 [0 ffffffff c 800] [energy 100.000000] ------- [12:255 -1:255 1 0] [0x1 1 [12 2] 4.000000] (HELLO)
s 0.000075000 _19_ MAC  --- 0 AODV 96 [0 ffffffff 13 800] [energy 100.000000] ------- [19:255 -1:255 1 0] [0x1 1 [19 2] 4.000000] (HELLO)
D 0.000075357 _13_ MAC  COL 0 AODV 96 [0 ffffffff 13 800] [energy 99.999770] ------- [19:255 -1:255 1 0] [0x1 1 [19 2] 4.000000] (HELLO)
D 0.000075478 _5_ MAC  COL 0 AODV 96 [0 ffffffff 13 800] [energy 99.999770] ------- [19:255 -1:255 1 0] [0x1 1 [19 2] 4.000000] (HELLO)
D 0.000075603 _28_ MAC  COL 0 AODV 96 [0 ffffffff 13 800] [energy 99.999770] ------- [19:255 -1:255 1 0] [0x1 1 [19 2] 4.000000] (HELLO)
D 0.000075717 _38_ MAC  COL 0 AODV 96 [0 ffffffff c 800] [energy 99.999770] ------- [12:255 -1:255 1 0] [0x1 1 [12 2] 4.000000] (HELLO)
D 0.000075809 _1_ MAC  COL 0 AODV 96 [0 ffffffff 13 800] [energy 99.999770] ------- [19:255 -1:255 1 0] [0x1 1 [19 2] 4.000000] (HELLO)
D 0.000075982 _3_ MAC  COL 0 AODV 96 [0 ffffffff c 800] [energy 99.999770] ------- [12:255 -1:255 1 0] [0x1 1 [12 2] 4.000000] (HELLO)
D 0.000076060 _7_ MAC  COL 0 AODV 96 [0 ffffffff 13 800] [energy 99.999769] ------- [19:255 -1:255 1 0] [0x1 1 [19 2] 4.000000] (HELLO)
D 0.000076216 _36_ MAC  COL 0 AODV 96 [0 ffffffff c 800] [energy 99.999769] ------- [12:255 -1:255 1 0] [0x1 1 [12 2] 4.000000] (HELLO)
s 0.000135000 _0_ MAC  --- 0 PHENOM 52 [0 ffffffff 0 800] [energy 100.000000] [0 1 12 2](CO)
r 0.000551000 _1_ MAC  --- 0 PHENOM 0 [0 ffffffff 0 800] [energy 99.999770] [0 1 12 2](CO)
r 0.000551378 _9_ MAC  --- 0 PHENOM 0 [0 ffffffff 0 800] [energy 99.999770] [0 1 12 2](CO)
r 0.000551382 _7_ MAC  --- 0 PHENOM 0 [0 ffffffff 0 800] [energy 99.999769] [0 1 12 2](CO)
r 0.000551427 _5_ MAC  --- 0 PHENOM 0 [0 ffffffff 0 800] [energy 99.999770] [0 1 12 2](CO)
r 0.000551510 _3_ MAC  --- 0 PHENOM 0 [0 ffffffff 0 800] [energy 99.999770] [0 1 12 2](CO)
r 0.000551563 _8_ MAC  --- 0 PHENOM 0 [0 ffffffff 0 800] [energy 99.999770] [0 1 12 2](CO)
r 0.000551566 _18_ MAC  --- 0 PHENOM 0 [0 ffffffff 0 800] [energy 99.999769] [0 1 12 2](CO)
r 0.000551612 _2_ MAC  --- 0 PHENOM 0 [0 ffffffff 0 800] [energy 99.999770] [0 1 12 2](CO)
r 0.000551641 _4_ MAC  --- 0 PHENOM 0 [0 ffffffff 0 800] [energy 99.999769] [0 1 12 2](CO)
r 0.000551645 _15_ MAC  --- 0 PHENOM 0 [0 ffffffff 0 800] [energy 99.999770] [0 1 12 2](CO)
r 0.000551664 _6_ MAC  --- 0 PHENOM 0 [0 ffffffff 0 800] [energy 99.999769] [0 1 12 2](CO)
r 0.000551664 _17_ MAC  --- 0 PHENOM 0 [0 ffffffff 0 800] [energy 99.999769] [0 1 12 2](CO)
r 0.000551689 _13_ MAC  --- 0 PHENOM 0 [0 ffffffff 0 800] [energy 99.999770] [0 1 12 2](CO)
r 0.000551693 _16_ MAC  --- 0 PHENOM 0 [0 ffffffff 0 800] [energy 99.999770] [0 1 12 2](CO)
r 0.000551697 _19_ MAC  --- 0 PHENOM 0 [0 ffffffff 0 800] [energy 99.999539] [0 1 12 2](CO)
r 0.000551704 _34_ MAC  --- 0 PHENOM 0 [0 ffffffff 0 800] [energy 99.999770] [0 1 12 2](CO)
r 0.000551801 _10_ MAC  --- 0 PHENOM 0 [0 ffffffff 0 800] [energy 99.999769] [0 1 12 2](CO)
r 0.000551809 _12_ MAC  --- 0 PHENOM 0 [0 ffffffff 0 800] [energy 99.999539] [0 1 12 2](CO)
r 0.000551820 _11_ MAC  --- 0 PHENOM 0 [0 ffffffff 0 800] [energy 99.999769] [0 1 12 2](CO)
r 0.000843289 _18_ MAC  --- 0 AODV 44 [0 ffffffff 13 800] [energy 99.999769] ------- [19:255 -1:255 1 0] [0x1 1 [19 2] 4.000000] (HELLO)
r 0.000843296 _4_ MAC  --- 0 AODV 44 [0 ffffffff c 800] [energy 99.999769] ------- [12:255 -1:255 1 0] [0x1 1 [12 2] 4.000000] (HELLO)
r 0.000843335 _27_ MAC  --- 0 AODV 44 [0 ffffffff c 800] [energy 99.999769] ------- [12:255 -1:255 1 0] [0x1 1 [12 2] 4.000000] (HELLO)
D 0.000843357 _13_ MAC  COL 0 AODV 96 [0 ffffffff c 800] [energy 99.999770] ------- [12:255 -1:255 1 0] [0x1 1 [12 2] 4.000000] (HELLO)
r 0.000843365 _10_ MAC  --- 0 AODV 44 [0 ffffffff 13 800] [energy 99.999769] ------- [19:255 -1:255 1 0] [0x1 1 [19 2] 4.000000] (HELLO)
r 0.000843451 _11_ MAC  --- 0 AODV 44 [0 ffffffff c 800] [energy 99.999769] ------- [12:255 -1:255 1 0] [0x1 1 [12 2] 4.000000] (HELLO)
D 0.000843478 _5_ MAC  COL 0 AODV 96 [0 ffffffff c 800] [energy 99.999770] ------- [12:255 -1:255 1 0] [0x1 1 [12 2] 4.000000] (HELLO)
r 0.000843479 _29_ MAC  --- 0 AODV 44 [0 ffffffff 13 800] [energy 99.999769] ------- [19:255 -1:255 1 0] [0x1 1 [19 2] 4.000000] (HELLO)
r 0.000843575 _37_ MAC  --- 0 AODV 44 [0 ffffffff c 800] [energy 99.999769] ------- [12:255 -1:255 1 0] [0x1 1 [12 2] 4.000000] (HELLO)
r 0.000843580 _39_ MAC  --- 0 AODV 44 [0 ffffffff 13 800] [energy 99.999769] ------- [19:255 -1:255 1 0] [0x1 1 [19 2] 4.000000] (HELLO)
r 0.000843595 _6_ MAC  --- 0 AODV 44 [0 ffffffff 13 800] [energy 99.999769] ------- [19:255 -1:255 1 0] [0x1 1 [19 2] 4.000000] (HELLO)
D 0.000843603 _28_ MAC  COL 0 AODV 96 [0 ffffffff c 800] [energy 99.999770] ------- [12:255 -1:255 1 0] [0x1 1 [12 2] 4.000000] (HELLO)
r 0.000843708 _30_ MAC  --- 0 AODV 44 [0 ffffffff 13 800] [energy 99.999769] ------- [19:255 -1:255 1 0] [0x1 1 [19 2] 4.000000] (HELLO)
D 0.000843717 _38_ MAC  COL 0 AODV 96 [0 ffffffff 13 800] [energy 99.999770] ------- [19:255 -1:255 1 0] [0x1 1 [19 2] 4.000000] (HELLO)
r 0.000843761 _20_ MAC  --- 0 AODV 44 [0 ffffffff 13 800] [energy 99.999769] ------- [19:255 -1:255 1 0] [0x1 1 [19 2] 4.000000] (HELLO)
D 0.000843809 _1_ MAC  COL 0 AODV 96 [0 ffffffff c 800] [energy 99.999770] ------- [12:255 -1:255 1 0] [0x1 1 [12 2] 4.000000] (HELLO)
r 0.000868289 _18_ RTR  --- 0 AODV 44 [0 ffffffff 13 800] [energy 99.999769] ------- [19:255 -1:255 1 0] [0x1 1 [19 2] 4.000000] (HELLO)
r 0.000868296 _4_ RTR  --- 0 AODV 44 [0 ffffffff c 800] [energy 99.999769] ------- [12:255 -1:255 1 0] [0x1 1 [12 2] 4.000000] (HELLO)
r 0.000868335 _27_ RTR  --- 0 AODV 44 [0 ffffffff c 800] [energy 99.999769] ------- [12:255 -1:255 1 0] [0x1 1 [12 2] 4.000000] (HELLO)
r 0.000868365 _10_ RTR  --- 0 AODV 44 [0 ffffffff 13 800] [energy 99.999769] ------- [19:255 -1:255 1 0] [0x1 1 [19 2] 4.000000] (HELLO)
r 0.000868451 _11_ RTR  --- 0 AODV 44 [0 ffffffff c 800] [energy 99.999769] ------- [12:255 -1:255 1 0] [0x1 1 [12 2] 4.000000] (HELLO)
r 0.000868479 _29_ RTR  --- 0 AODV 44 [0 ffffffff 13 800] [energy 99.999769] ------- [19:255 -1:255 1 0] [0x1 1 [19 2] 4.000000] (HELLO)
r 0.000868575 _37_ RTR  --- 0 AODV 44 [0 ffffffff c 800] [energy 99.999769] ------- [12:255 -1:255 1 0] [0x1 1 [12 2] 4.000000] (HELLO)
r 0.000868580 _39_ RTR  --- 0 AODV 44 [0 ffffffff 13 800] [energy 99.999769] ------- [19:255 -1:255 1 0] [0x1 1 [19 2] 4.000000] (HELLO)
r 0.000868595 _6_ RTR  --- 0 AODV 44 [0 ffffffff 13 800] [energy 99.999769] ------- [19:255 -1:255 1 0] [0x1 1 [19 2] 4.000000] (HELLO)
r 0.000868708 _30_ RTR  --- 0 AODV 44 [0 ffffffff 13 800] [energy 99.999769] ------- [19:255 -1:255 1 0] [0x1 1 [19 2] 4.000000] (HELLO)
r 0.000868761 _20_ RTR  --- 0 AODV 44 [0 ffffffff 13 800] [energy 99.999769] ------- [19:255 -1:255 1 0] [0x1 1 [19 2] 4.000000] (HELLO)
s 0.001258346 _30_ MAC  --- 0 AODV 96 [0 ffffffff 1e 800] [energy 99.999769] ------- [30:255 -1:255 1 0] [0x1 1 [30 2] 4.000000] (HELLO)
s 0.001398234 _34_ MAC  --- 0 AODV 96 [0 ffffffff 22 800] [energy 99.999770] ------- [34:255 -1:255 1 0] [0x1 1 [34 2] 4.000000] (HELLO)
D 0.001399469 _19_ MAC  COL 0 AODV 96 [0 ffffffff 1e 800] [energy 99.999266] ------- [30:255 -1:255 1 0] [0x1 1 [30 2] 4.000000] (HELLO)
r 0.002026630 _29_ MAC  --- 0 AODV 44 [0 ffffffff 1e 800] [energy 99.999497] ------- [30:255 -1:255 1 0] [0x1 1 [30 2] 4.000000] (HELLO)
r 0.002026754 _10_ MAC  --- 0 AODV 44 [0 ffffffff 1e 800] [energy 99.999497] ------- [30:255 -1:255 1 0] [0x1 1 [30 2] 4.000000] (HELLO)
r 0.002026809 _20_ MAC  --- 0 AODV 44 [0 ffffffff 1e 800] [energy 99.999497] ------- [30:255 -1:255 1 0] [0x1 1 [30 2] 4.000000] (HELLO)
r 0.002026921 _39_ MAC  --- 0 AODV 44 [0 ffffffff 1e 800] [energy 99.999497] ------- [30:255 -1:255 1 0] [0x1 1 [30 2] 4.000000] (HELLO)
r 0.002026970 _6_ MAC  --- 0 AODV 44 [0 ffffffff 1e 800] [energy 99.999497] ------- [30:255 -1:255 1 0] [0x1 1 [30 2] 4.000000] (HELLO)
r 0.002026993 _18_ MAC  --- 0 AODV 44 [0 ffffffff 1e 800] [energy 99.999497] ------- [30:255 -1:255 1 0] [0x1 1 [30 2] 4.000000] (HELLO)
r 0.002051630 _29_ RTR  --- 0 AODV 44 [0 ffffffff 1e 800] [energy 99.999497] ------- [30:255 -1:255 1 0] [0x1 1 [30 2] 4.000000] (HELLO)
r 0.002051754 _10_ RTR  --- 0 AODV 44 [0 ffffffff 1e 800] [energy 99.999497] ------- [30:255 -1:255 1 0] [0x1 1 [30 2] 4.000000] (HELLO)
r 0.002051809 _20_ RTR  --- 0 AODV 44 [0 ffffffff 1e 800] [energy 99.999497] ------- [30:255 -1:255 1 0] [0x1 1 [30 2] 4.000000] (HELLO)
r 0.002051921 _39_ RTR  --- 0 AODV 44 [0 ffffffff 1e 800] [energy 99.999497] ------- [30:255 -1:255 1 0] [0x1 1 [30 2] 4.000000] (HELLO)
r 0.002051970 _6_ RTR  --- 0 AODV 44 [0 ffffffff 1e 800] [energy 99.999497] ------- [30:255 -1:255 1 0] [0x1 1 [30 2] 4.000000] (HELLO)
r 0.002051993 _18_ RTR  --- 0 AODV 44 [0 ffffffff 1e 800] [energy 99.999497] ------- [30:255 -1:255 1 0] [0x1 1 [30 2] 4.000000] (HELLO)
D 0.002166487 _3_ MAC  COL 0 AODV 96 [0 ffffffff 22 800] [energy 99.999498] ------- [34:255 -1:255 1 0] [0x1 1 [34 2] 4.000000] (HELLO)
D 0.002166520 _2_ MAC  COL 0 AODV 96 [0 ffffffff 22 800] [energy 99.999498] ------- [34:255 -1:255 1 0] [0x1 1 [34 2] 4.000000] (HELLO)
r 0.002166539 _36_ MAC  --- 0 AODV 44 [0 ffffffff 22 800] [energy 99.999539] ------- [34:255 -1:255 1 0] [0x1 1 [34 2] 4.000000] (HELLO)
r 0.002166634 _26_ MAC  --- 0 AODV 44 [0 ffffffff 22 800] [energy 99.999539] ------- [34:255 -1:255 1 0] [0x1 1 [34 2] 4.000000] (HELLO)
D 0.002166783 _11_ MAC  COL 0 AODV 96 [0 ffffffff 22 800] [energy 99.999497] ------- [34:255 -1:255 1 0] [0x1 1 [34 2] 4.000000] (HELLO)
D 0.002166847 _4_ MAC  COL 0 AODV 96 [0 ffffffff 22 800] [energy 99.999497] ------- [34:255 -1:255 1 0] [0x1 1 [34 2] 4.000000] (HELLO)
D 0.002166874 _15_ MAC  COL 0 AODV 96 [0 ffffffff 22 800] [energy 99.999498] ------- [34:255 -1:255 1 0] [0x1 1 [34 2] 4.000000] (HELLO)
D 0.002166896 _9_ MAC  COL 0 AODV 96 [0 ffffffff 22 800] [energy 99.999497] ------- [34:255 -1:255 1 0] [0x1 1 [34 2] 4.000000] (HELLO)
r 0.002166920 _25_ MAC  --- 0 AODV 44 [0 ffffffff 22 800] [energy 99.999539] ------- [34:255 -1:255 1 0] [0x1 1 [34 2] 4.000000] (HELLO)
D 0.002166938 _1_ MAC  COL 0 AODV 96 [0 ffffffff 22 800] [energy 99.999497] ------- [34:255 -1:255 1 0] [0x1 1 [34 2] 4.000000] (HELLO)
r 0.002166956 _35_ MAC  --- 0 AODV 44 [0 ffffffff 22 800] [energy 99.999539] ------- [34:255 -1:255 1 0] [0x1 1 [34 2] 4.000000] (HELLO)
r 0.002191539 _36_ RTR  --- 0 AODV 44 [0 ffffffff 22 800] [energy 99.999539] ------- [34:255 -1:255 1 0] [0x1 1 [34 2] 4.000000] (HELLO)
r 0.002191634 _26_ RTR  --- 0 AODV 44 [0 ffffffff 22 800] [energy 99.999539] ------- [34:255 -1:255 1 0] [0x1 1 [34 2] 4.000000] (HELLO)
r 0.002191920 _25_ RTR  --- 0 AODV 44 [0 ffffffff 22 800] [energy 99.999539] ------- [34:255 -1:255 1 0] [0x1 1 [34 2] 4.000000] (HELLO)
r 0.002191956 _35_ RTR  --- 0 AODV 44 [0 ffffffff 22 800] [energy 99.999539] ------- [34:255 -1:255 1 0] [0x1 1 [34 2] 4.000000] (HELLO)
s 0.002396634 _26_ MAC  --- 0 AODV 96 [0 ffffffff 1a 800] [energy 99.999539] ------- [26:255 -1:255 1 0] [0x1 1 [26 2] 4.000000] (HELLO)
s 0.002821772 _38_ MAC  --- 0 AODV 96 [0 ffffffff 26 800] [energy 99.999497] ------- [38:255 -1:255 1 0] [0x1 1 [38 2] 4.000000] (HELLO)
r 0.003164929 _2_ MAC  --- 0 AODV 44 [0 ffffffff 1a 800] [energy 99.999139] ------- [26:255 -1:255 1 0] [0x1 1 [26 2] 4.000000] (HELLO)
r 0.003164957 _35_ MAC  --- 0 AODV 44 [0 ffffffff 1a 800] [energy 99.999309] ------- [26:255 -1:255 1 0] [0x1 1 [26 2] 4.000000] (HELLO)
r 0.003164996 _25_ MAC  --- 0 AODV 44 [0 ffffffff 1a 800] [energy 99.999309] ------- [26:255 -1:255 1 0] [0x1 1 [26 2] 4.000000] (HELLO)
r 0.003165034 _34_ MAC  --- 0 AODV 44 [0 ffffffff 1a 800] [energy 99.998950] ------- [26:255 -1:255 1 0] [0x1 1 [26 2] 4.000000] (HELLO)
r 0.003165125 _15_ MAC  --- 0 AODV 44 [0 ffffffff 1a 800] [energy 99.999267] ------- [26:255 -1:255 1 0] [0x1 1 [26 2] 4.000000] (HELLO)
r 0.003165249 _3_ MAC  --- 0 AODV 44 [0 ffffffff 1a 800] [energy 99.999139] ------- [26:255 -1:255 1 0] [0x1 1 [26 2] 4.000000] (HELLO)
r 0.003165307 _36_ MAC  --- 0 AODV 44 [0 ffffffff 1a 800] [energy 99.999181] ------- [26:255 -1:255 1 0] [0x1 1 [26 2] 4.000000] (HELLO)
r 0.003165316 _9_ MAC  --- 0 AODV 44 [0 ffffffff 1a 800] [energy 99.999139] ------- [26:255 -1:255 1 0] [0x1 1 [26 2] 4.000000] (HELLO)
r 0.003165355 _14_ MAC  --- 0 AODV 44 [0 ffffffff 1a 800] [energy 99.999309] ------- [26:255 -1:255 1 0] [0x1 1 [26 2] 4.000000] (HELLO)
r 0.003165421 _24_ MAC  --- 0 AODV 44 [0 ffffffff 1a 800] [energy 99.999309] ------- [26:255 -1:255 1 0] [0x1 1 [26 2] 4.000000] (HELLO)
r 0.003189929 _2_ RTR  --- 0 AODV 44 [0 ffffffff 1a 800] [energy 99.999139] ------- [26:255 -1:255 1 0] [0x1 1 [26 2] 4.000000] (HELLO)
r 0.003189957 _35_ RTR  --- 0 AODV 44 [0 ffffffff 1a 800] [energy 99.999309] ------- [26:255 -1:255 1 0] [0x1 1 [26 2] 4.000000] (HELLO)
r 0.003189996 _25_ RTR  --- 0 AODV 44 [0 ffffffff 1a 800] [energy 99.999309] ------- [26:255 -1:255 1 0] [0x1 1 [26 2] 4.000000] (HELLO)
r 0.003190034 _34_ RTR  --- 0 AODV 44 [0 ffffffff 1a 800] [energy 99.998950] ------- [26:255 -1:255 1 0] [0x1 1 [26 2] 4.000000] (HELLO)
r 0.003190125 _15_ RTR  --- 0 AODV 44 [0 ffffffff 1a 800] [energy 99.999267] ------- [26:255 -1:255 1 0] [0x1 1 [26 2] 4.000000] (HELLO)
r 0.003190249 _3_ RTR  --- 0 AODV 44 [0 ffffffff 1a 800] [energy 99.999139] ------- [26:255 -1:255 1 0] [0x1 1 [26 2] 4.000000] (HELLO)
r 0.003190307 _36_ RTR  --- 0 AODV 44 [0 ffffffff 1a 800] [energy 99.999181] ------- [26:255 -1:255 1 0] [0x1 1 [26 2] 4.000000] (HELLO)
r 0.003190316 _9_ RTR  --- 0 AODV 44 [0 ffffffff 1a 800] [energy 99.999139] ------- [26:255 -1:255 1 0] [0x1 1 [26 2] 4.000000] (HELLO)
r 0.003190355 _14_ RTR  --- 0 AODV 44 [0 ffffffff 1a 800] [energy 99.999309] ------- [26:255 -1:255 1 0] [0x1 1 [26 2] 4.000000] (HELLO)
r 0.003190421 _24_ RTR  --- 0 AODV 44 [0 ffffffff 1a 800] [energy 99.999309] ------- [26:255 -1:255 1 0] [0x1 1 [26 2] 4.000000] (HELLO)
s 0.003374957 _35_ MAC  --- 0 AODV 96 [0 ffffffff 23 800] [energy 99.999309] ------- [35:255 -1:255 1 0] [0x1 1 [35 2] 4.000000] (HELLO)
D 0.003590054 _28_ MAC  COL 0 AODV 96 [0 ffffffff 26 800] [energy 99.999140] ------- [38:255 -1:255 1 0] [0x1 1 [38 2] 4.000000] (HELLO)
D 0.003590257 _37_ MAC  COL 0 AODV 96 [0 ffffffff 26 800] [energy 99.999140] ------- [38:255 -1:255 1 0] [0x1 1 [38 2] 4.000000] (HELLO)
D 0.003590360 _13_ MAC  COL 0 AODV 96 [0 ffffffff 26 800] [energy 99.998973] ------- [38:255 -1:255 1 0] [0x1 1 [38 2] 4.000000] (HELLO)
D 0.003590405 _12_ MAC  COL 0 AODV 96 [0 ffffffff 26 800] [energy 99.998743] ------- [38:255 -1:255 1 0] [0x1 1 [38 2] 4.000000] (HELLO)
D 0.003590421 _27_ MAC  COL 0 AODV 96 [0 ffffffff 26 800] [energy 99.998973] ------- [38:255 -1:255 1 0] [0x1 1 [38 2] 4.000000] (HELLO)
r 0.003590445 _39_ MAC  --- 0 AODV 44 [0 ffffffff 26 800] [energy 99.999266] ------- [38:255 -1:255 1 0] [0x1 1 [38 2] 4.000000] (HELLO)
D 0.003590489 _19_ MAC  COL 0 AODV 96 [0 ffffffff 26 800] [energy 99.998743] ------- [38:255 -1:255 1 0] [0x1 1 [38 2] 4.000000] (HELLO)
r 0.003615445 _39_ RTR  --- 0 AODV 44 [0 ffffffff 26 800] [energy 99.999266] ------- [38:255 -1:255 1 0] [0x1 1 [38 2] 4.000000] (HELLO)
s 0.004040445 _39_ MAC  --- 0 AODV 96 [0 ffffffff 27 800] [energy 99.999266] ------- [39:255 -1:255 1 0] [0x1 1 [39 2] 4.000000] (HELLO)
r 0.004143223 _25_ MAC  --- 0 AODV 44 [0 ffffffff 23 800] [energy 99.999078] ------- [35:255 -1:255 1 0] [0x1 1 [35 2] 4.000000] (HELLO)
r 0.004143280 _26_ MAC  --- 0 AODV 44 [0 ffffffff 23 800] [energy 99.998848] ------- [35:255 -1:255 1 0] [0x1 1 [35 2] 4.000000] (HELLO)
r 0.004143507 _15_ MAC  --- 0 AODV 44 [0 ffffffff 23 800] [energy 99.999037] ------- [35:255 -1:255 1 0] [0x1 1 [35 2] 4.000000] (HELLO)
r 0.004143507 _14_ MAC  --- 0 AODV 44 [0 ffffffff 23 800] [energy 99.999078] ------- [35:255 -1:255 1 0] [0x1 1 [35 2] 4.000000] (HELLO)
r 0.004143512 _2_ MAC  --- 0 AODV 44 [0 ffffffff 23 800] [energy 99.998974] ------- [35:255 -1:255 1 0] [0x1 1 [35 2] 4.000000] (HELLO)
r 0.004143672 _24_ MAC  --- 0 AODV 44 [0 ffffffff 23 800] [energy 99.999078] ------- [35:255 -1:255 1 0] [0x1 1 [35 2] 4.000000] (HELLO)
r 0.004143678 _34_ MAC  --- 0 AODV 44 [0 ffffffff 23 800] [energy 99.998585] ------- [35:255 -1:255 1 0] [0x1 1 [35 2] 4.000000] (HELLO)
r 0.004143775 _9_ MAC  --- 0 AODV 44 [0 ffffffff 23 800] [energy 99.998774] ------- [35:255 -1:255 1 0] [0x1 1 [35 2] 4.000000] (HELLO)
r 0.004168223 _25_ RTR  --- 0 AODV 44 [0 ffffffff 23 800] [energy 99.999078] ------- [35:255 -1:255 1 0] [0x1 1 [35 2] 4.000000] (HELLO)
r 0.004168280 _26_ RTR  --- 0 AODV 44 [0 ffffffff 23 800] [energy 99.998848] ------- [35:255 -1:255 1 0] [0x1 1 [35 2] 4.000000] (HELLO)
r 0.004168507 _15_ RTR  --- 0 AODV 44 [0 ffffffff 23 800] [energy 99.999037] ------- [35:255 -1:255 1 0] [0x1 1 [35 2] 4.000000] (HELLO)
r 0.004168507 _14_ RTR  --- 0 AODV 44 [0 ffffffff 23 800] [energy 99.999078] ------- [35:255 -1:255 1 0] [0x1 1 [35 2] 4.000000] (HELLO)
r 0.004168512 _2_ RTR  --- 0 AODV 44 [0 ffffffff 23 800] [energy 99.998974] ------- [35:255 -1:255 1 0] [0x1 1 [35 2] 4.000000] (HELLO)
r 0.004168672 _24_ RTR  --- 0 AODV 44 [0 ffffffff 23 800] [energy 99.999078] ------- [35:255 -1:255 1 0] [0x1 1 [35 2] 4.000000] (HELLO)
r 0.004168678 _34_ RTR  --- 0 AODV 44 [0 ffffffff 23 800] [energy 99.998585] ------- [35:255 -1:255 1 0] [0x1 1 [35 2] 4.000000] (HELLO)
r 0.004168775 _9_ RTR  --- 0 AODV 44 [0 ffffffff 23 800] [energy 99.998774] ------- [35:255 -1:255 1 0] [0x1 1 [35 2] 4.000000] (HELLO)
s 0.004253507 _15_ MAC  --- 0 AODV 96 [0 ffffffff f 800] [energy 99.999037] ------- [15:255 -1:255 1 0] [0x1 1 [15 2] 4.000000] (HELLO)
D 0.004254692 _18_ MAC  COL 0 AODV 96 [0 ffffffff 27 800] [energy 99.998710] ------- [39:255 -1:255 1 0] [0x1 1 [39 2] 4.000000] (HELLO)
D 0.004254811 _13_ MAC  COL 0 AODV 96 [0 ffffffff 27 800] [energy 99.998710] ------- [39:255 -1:255 1 0] [0x1 1 [39 2] 4.000000] (HELLO)
r 0.004808781 _29_ MAC  --- 0 AODV 44 [0 ffffffff 27 800] [energy 99.998971] ------- [39:255 -1:255 1 0] [0x1 1 [39 2] 4.000000] (HELLO)
r 0.004808917 _28_ MAC  --- 0 AODV 44 [0 ffffffff 27 800] [energy 99.998845] ------- [39:255 -1:255 1 0] [0x1 1 [39 2] 4.000000] (HELLO)
r 0.004809020 _30_ MAC  --- 0 AODV 44 [0 ffffffff 27 800] [energy 99.998784] ------- [39:255 -1:255 1 0] [0x1 1 [39 2] 4.000000] (HELLO)
r 0.004809026 _19_ MAC  --- 0 AODV 44 [0 ffffffff 27 800] [energy 99.998479] ------- [39:255 -1:255 1 0] [0x1 1 [39 2] 4.000000] (HELLO)
r 0.004809057 _10_ MAC  --- 0 AODV 44 [0 ffffffff 27 800] [energy 99.998844] ------- [39:255 -1:255 1 0] [0x1 1 [39 2] 4.000000] (HELLO)
r 0.004809119 _38_ MAC  --- 0 AODV 44 [0 ffffffff 27 800] [energy 99.998806] ------- [39:255 -1:255 1 0] [0x1 1 [39 2] 4.000000] (HELLO)
r 0.004833781 _29_ RTR  --- 0 AODV 44 [0 ffffffff 27 800] [energy 99.998971] ------- [39:255 -1:255 1 0] [0x1 1 [39 2] 4.000000] (HELLO)
r 0.004833917 _28_ RTR  --- 0 AODV 44 [0 ffffffff 27 800] [energy 99.998845] ------- [39:255 -1:255 1 0] [0x1 1 [39 2] 4.000000] (HELLO)
r 0.004834020 _30_ RTR  --- 0 AODV 44 [0 ffffffff 27 800] [energy 99.998784] ------- [39:255 -1:255 1 0] [0x1 1 [39 2] 4.000000] (HELLO)
r 0.004834026 _19_ RTR  --- 0 AODV 44 [0 ffffffff 27 800] [energy 99.998479] ------- [39:255 -1:255 1 0] [0x1 1 [39 2] 4.000000] (HELLO)
r 0.004834057 _10_ RTR  --- 0 AODV 44 [0 ffffffff 27 800] [energy 99.998844] ------- [39:255 -1:255 1 0] [0x1 1 [39 2] 4.000000] (HELLO)
r 0.004834119 _38_ RTR  --- 0 AODV 44 [0 ffffffff 27 800] [energy 99.998806] ------- [39:255 -1:255 1 0] [0x1 1 [39 2] 4.000000] (HELLO)
r 0.005021792 _9_ MAC  --- 0 AODV 44 [0 ffffffff f 800] [energy 99.998710] ------- [15:255 -1:255 1 0] [0x1 1 [15 2] 4.000000] (HELLO)
r 0.005021804 _25_ MAC  --- 0 AODV 44 [0 ffffffff f 800] [energy 99.998848] ------- [15:255 -1:255 1 0] [0x1 1 [15 2] 4.000000] (HELLO)
r 0.005021854 _24_ MAC  --- 0 AODV 44 [0 ffffffff f 800] [energy 99.998848] ------- [15:255 -1:255 1 0] [0x1 1 [15 2] 4.000000] (HELLO)
r 0.005021861 _2_ MAC  --- 0 AODV 44 [0 ffffffff f 800] [energy 99.998743] ------- [15:255 -1:255 1 0] [0x1 1 [15 2] 4.000000] (HELLO)
r 0.005021939 _14_ MAC  --- 0 AODV 44 [0 ffffffff f 800] [energy 99.998848] ------- [15:255 -1:255 1 0] [0x1 1 [15 2] 4.000000] (HELLO)
r 0.005021977 _16_ MAC  --- 0 AODV 44 [0 ffffffff f 800] [energy 99.998773] ------- [15:255 -1:255 1 0] [0x1 1 [15 2] 4.000000] (HELLO)
r 0.005021998 _26_ MAC  --- 0 AODV 44 [0 ffffffff f 800] [energy 99.998618] ------- [15:255 -1:255 1 0] [0x1 1 [15 2] 4.000000] (HELLO)
r 0.005022057 _35_ MAC  --- 0 AODV 44 [0 ffffffff f 800] [energy 99.998618] ------- [15:255 -1:255 1 0] [0x1 1 [15 2] 4.000000] (HELLO)
r 0.005022135 _33_ MAC  --- 0 AODV 44 [0 ffffffff f 800] [energy 99.998848] ------- [15:255 -1:255 1 0] [0x1 1 [15 2] 4.000000] (HELLO)
D 0.005022142 _8_ MAC  COL 0 AODV 96 [0 ffffffff f 800] [energy 99.998710] ------- [15:255 -1:255 1 0] [0x1 1 [15 2] 4.000000] (HELLO)
r 0.005022146 _34_ MAC  --- 0 AODV 44 [0 ffffffff f 800] [energy 99.998521] ------- [15:255 -1:255 1 0] [0x1 1 [15 2] 4.000000] (HELLO)
D 0.005022152 _1_ MAC  COL 0 AODV 96 [0 ffffffff f 800] [energy 99.998710] ------- [15:255 -1:255 1 0] [0x1 1 [15 2] 4.000000] (HELLO)
r 0.005022186 _23_ MAC  --- 0 AODV 44 [0 ffffffff f 800] [energy 99.998806] ------- [15:255 -1:255 1 0] [0x1 1 [15 2] 4.000000] (HELLO)
D 0.005022194 _3_ MAC  COL 0 AODV 96 [0 ffffffff f 800] [energy 99.998710] ------- [15:255 -1:255 1 0] [0x1 1 [15 2] 4.000000] (HELLO)
r 0.005046792 _9_ RTR  --- 0 AODV 44 [0 ffffffff f 800] [energy 99.998710] ------- [15:255 -1:255 1 0] [0x1 1 [15 2] 4.000000] (HELLO)
r 0.005046804 _25_ RTR  --- 0 AODV 44 [0 ffffffff f 800] [energy 99.998848] ------- [15:255 -1:255 1 0] [0x1 1 [15 2] 4.000000] (HELLO)
r 0.005046854 _24_ RTR  --- 0 AODV 44 [0 ffffffff f 800] [energy 99.998848] ------- [15:255 -1:255 1 0] [0x1 1 [15 2] 4.000000] (HELLO)
r 0.005046861 _2_ RTR  --- 0 AODV 44 [0 ffffffff f 800] [energy 99.998743] ------- [15:255 -1:255 1 0] [0x1 1 [15 2] 4.000000] (HELLO)
r 0.005046939 _14_ RTR  --- 0 AODV 44 [0 ffffffff f 800] [energy 99.998848] ------- [15:255 -1:255 1 0] [0x1 1 [15 2] 4.000000] (HELLO)
r 0.005046977 _16_ RTR  --- 0 AODV 44 [0 ffffffff f 800] [energy 99.998773] ------- [15:255 -1:255 1 0] [0x1 1 [15 2] 4.000000] (HELLO)
r 0.005046998 _26_ RTR  --- 0 AODV 44 [0 ffffffff f 800] [energy 99.998618] ------- [15:255 -1:255 1 0] [0x1 1 [15 2] 4.000000] (HELLO)