n -t * -s 0  -x 0 -y 0 -Z 0 -z 30  -v circle -c green
n -t * -s 1  -x 0 -y 0 -Z 0 -z 35  -v circle -c green
n -t * -s 2  -x 0 -y 0 -Z 0 -z 35  -v circle -c green
n -t * -s 3  -x 0 -y 0 -Z 0 -z 35  -v circle -c green
n -t * -s 4  -x 0 -y 0 -Z 0 -z 35  -v circle -c green
n -t * -s 5  -x 0 -y 0 -Z 0 -z 35  -v circle -c green
n -t * -s 6  -x 0 -y 0 -Z 0 -z 35  -v circle -c green 
n -t * -s 7  -x 0 -y 0 -Z 0 -z 35  -v circle -c green
n -t * -s 8  -x 0 -y 0 -Z 0 -z 35  -v circle -c green
n -t * -s 9  -x 0 -y 0 -Z 0 -z 35  -v circle -c green
n -t * -s 10  -x 0 -y 0 -Z 0 -z 35  -v circle -c green
n -t * -s 11  -x 0 -y 0 -Z 0 -z 35  -v circle -c green
n -t * -s 12  -x 0 -y 0 -Z 0 -z 35  -v circle -c green
n -t * -s 13  -x 0 -y 0 -Z 0 -z 35  -v circle -c green
n -t * -s 14  -x 0 -y 0 -Z 0 -z 35  -v circle -c green
n -t * -s 15  -x 0 -y 0 -Z 0 -z 35  -v circle -c green
n -t * -s 16  -x 0 -y 0 -Z 0 -z 35  -v circle -c green
n -t * -s 17  -x 0 -y 0 -Z 0 -z 35  -v circle -c green
n -t * -s 18  -x 0 -y 0 -Z 0 -z 35  -v circle -c green
n -t * -s 19  -x 0 -y 0 -Z 0 -z 35  -v circle -c green
n -t * -s 20  -x 0 -y 0 -Z 0 -z 35  -v circle -c green
n -t * -s 21  -x 0 -y 0 -Z 0 -z 35  -v circle -c green
n -t * -s 22  -x 0 -y 0 -Z 0 -z 35  -v circle -c green
n -t * -s 23  -x 0 -y 0 -Z 0 -z 35  -v circle -c green
n -t * -s 24  -x 0 -y 0 -Z 0 -z 35  -v circle -c green
n -t * -s 25  -x 0 -y 0 -Z 0 -z 35  -v circle -c green
n -t * -s 26  -x 0 -y 0 -Z 0 -z 35  -v circle -c green
n -t * -s 27  -x 0 -y 0 -Z 0 -z 35  -v circle -c green
n -t * -s 28  -x 0 -y 0 -Z 0 -z 35  -v circle -c green
n -t * -s 29  -x 0 -y 0 -Z 0 -z 35  -v circle -c green
n -t * -s 30  -x 0 -y 0 -Z 0 -z 35  -v circle -c green
n -t * -s 31  -x 0 -y 0 -Z 0 -z 35  -v circle -c green
n -t * -s 32  -x 0 -y 0 -Z 0 -z 35  -v circle -c green
n -t * -s 33  -x 0 -y 0 -Z 0 -z 35  -v circle -c green
n -t * -s 34  -x 0 -y 0 -Z 0 -z 35  -v circle -c green
n -t * -s 35  -x 0 -y 0 -Z 0 -z 35  -v circle -c green
n -t * -s 36  -x 0 -y 0 -Z 0 -z 35  -v circle -c green
n -t * -s 37  -x 0 -y 0 -Z 0 -z 35  -v circle -c green
n -t * -s 38  -x 0 -y 0 -Z 0 -z 35  -v circle -c green
n -t * -s 39  -x 0 -y 0 -Z 0 -z 35  -v circle -c green
V -t * -v 1.0a5 -a 0
W -t * -x 1400 -y 1400
A -t * -n 1 -p 0 -o 0xffffffff -c 31 -a 1
A -t * -h 1 -m 2147483647 -s 0
n -t 0.000000 -s 0 -x 559.029000 -y 284.462000 -U 0.000000 -V 0.000000 -T 0.000000
n -t 0.000000 -s 1 -x 559.029000 -y 284.462000 -U 0.000000 -V 0.000000 -T 0.000000
n -t 0.000000 -s 2 -x 672.460000 -y 139.916000 -U 0.000000 -V 0.000000 -T 0.000000
n -t 0.000000 -s 3 -x 555.799000 -y 131.517000 -U 0.000000 -V 0.000000 -T 0.000000
n -t 0.000000 -s 4 -x 436.528000 -y 136.141000 -U 0.000000 -V 0.000000 -T 0.000000
n -t 0.000000 -s 5 -x 431.164000 -y 278.286000 -U 0.000000 -V 0.000000 -T 0.000000
n -t 0.000000 -s 6 -x 493.702000 -y 472.693000 -U -0.000000 -V -0.000000 -T -0.000000
n -t 0.000000 -s 7 -x 560.158000 -y 399.127000 -U -0.000000 -V 0.000000 -T -0.000000
n -t 0.000000 -s 8 -x 680.993000 -y 401.114000 -U 0.000000 -V 0.000000 -T 0.000000
n -t 0.000000 -s 9 -x 671.276000 -y 269.068000 -U 0.000000 -V 0.000000 -T 0.000000
n -t 0.000000 -s 10 -x 392.589000 -y 457.987000 -U 0.000000 -V -0.000000 -T 0.000000
n -t 0.000000 -s 11 -x 447.483000 -y 65.126600 -U 0.000000 -V 0.000000 -T 0.000000
n -t 0.000000 -s 12 -x 350.843000 -y 159.665000 -U 0.000000 -V -0.000000 -T 0.000000
n -t 0.000000 -s 13 -x 352.994000 -y 266.809000 -U 0.000000 -V -0.000000 -T 0.000000
n -t 0.000000 -s 14 -x 869.755000 -y 239.498000 -U -0.000000 -V -0.000000 -T -0.000000
n -t 0.000000 -s 15 -x 741.603000 -y 220.590000 -U -0.000000 -V 0.000000 -T -0.000000
n -t 0.000000 -s 16 -x 752.107000 -y 361.348000 -U -0.000000 -V 0.000000 -T -0.000000
n -t 0.000000 -s 17 -x 617.652000 -y 474.974000 -U -0.000000 -V -0.000000 -T -0.000000
n -t 0.000000 -s 18 -x 434.443000 -y 399.836000 -U 0.000000 -V 0.000000 -T 0.000000
n -t 0.000000 -s 19 -x 361.348000 -y 352.994000 -U 0.000000 -V -0.000000 -T 0.000000
n -t 0.000000 -s 20 -x 468.492000 -y 554.627000 -U 0.000000 -V -0.000000 -T 0.000000
n -t 0.000000 -s 21 -x 598.745000 -y 546.223000 -U -0.000000 -V -0.000000 -T -0.000000
n -t 0.000000 -s 22 -x 701.687000 -y 502.105000 -U -0.000000 -V -0.000000 -T -0.000000
n -t 0.000000 -s 23 -x 771.015000 -y 422.272000 -U -0.000000 -V -0.000000 -T -0.000000
n -t 0.000000 -s 24 -x 815.133000 -y 294.120000 -U -0.000000 -V -0.000000 -T -0.000000
n -t 0.000000 -s 25 -x 802.528000 -y 155.464000 -U -0.000000 -V 0.000000 -T -0.000000
n -t 0.000000 -s 26 -x 731.098000 -y 73.530100 -U -0.000000 -V 0.000000 -T -0.000000
n -t 0.000000 -s 27 -x 289.918000 -y 79.832600 -U 0.000000 -V 0.000000 -T 0.000000
n -t 0.000000 -s 28 -x 237.397000 -y 300.423000 -U 0.000000 -V 0.000000 -T 0.000000
n -t 0.000000 -s 29 -x 300.423000 -y 483.197000 -U 0.000000 -V -0.000000 -T 0.000000
n -t 0.000000 -s 30 -x 329.835000 -y 563.030000 -U 0.000000 -V -0.000000 -T 0.000000
n -t 0.000000 -s 31 -x 743.707000 -y 558.828000 -U -0.000000 -V -0.000000 -T -0.000000
n -t 0.000000 -s 32 -x 829.839000 -y 491.601000 -U -0.000000 -V -0.000000 -T -0.000000
n -t 0.000000 -s 33 -x 859.251000 -y 367.650000 -U -0.000000 -V -0.000000 -T -0.000000
n -t 0.000000 -s 34 -x 611.350000 -y 79.832700 -U -0.000000 -V 0.000000 -T -0.000000
n -t 0.000000 -s 35 -x 827.738000 -y 79.832700 -U -0.000000 -V 0.000000 -T -0.000000
n -t 0.000000 -s 36 -x 533.618000 -y 31.512900 -U -0.000000 -V 0.000000 -T -0.000000
n -t 0.000000 -s 37 -x 191.178000 -y 94.538700 -U 0.000000 -V 0.000000 -T 0.000000
n -t 0.000000 -s 38 -x 178.573000 -y 239.498000 -U 0.000000 -V 0.000000 -T 0.000000
n -t 0.000000 -s 39 -x 210.086000 -y 439.079000 -U 0.000000 -V -0.000000 -T 0.000000
+ -t 0.000000000 -s 1 -d -1 -p AODV -e 44 -c 2 -a 0 -i 0 -k RTR 
- -t 0.000000000 -s 1 -d -1 -p AODV -e 44 -c 2 -a 0 -i 0 -k RTR
h -t 0.000000000 -s 1 -d -1 -p AODV -e 44 -c 2 -a 0 -i 0 -k RTR
+ -t 0.000000000 -s 2 -d -1 -p AODV -e 44 -c 2 -a 0 -i 0 -k RTR 
- -t 0.000000000 -s 2 -d -1 -p AODV -e 44 -c 2 -a 0 -i 0 -k RTR
h -t 0.000000000 -s 2 -d -1 -p AODV -e 44 -c 2 -a 0 -i 0 -k RTR
+ -t 0.000000000 -s 3 -d -1 -p AODV -e 44 -c 2 -a 0 -i 0 -k RTR 
- -t 0.000000000 -s 3 -d -1 -p AODV -e 44 -c 2 -a 0 -i 0 -k RTR
h -t 0.000000000 -s 3 -d -1 -p AODV -e 44 -c 2 -a 0 -i 0 -k RTR
+ -t 0.000000000 -s 4 -d -1 -p AODV -e 44 -c 2 -a 0 -i 0 -k RTR 
- -t 0.000000000 -s 4 -d -1 -p AODV -e 44 -c 2 -a 0 -i 0 -k RTR
h -t 0.000000000 -s 4 -d -1 -p AODV -e 44 -c 2 -a 0 -i 0 -k RTR
+ -t 0.000000000 -s 5 -d -1 -p AODV -e 44 -c 2 -a 0 -i 0 -k RTR 
- -t 0.000000000 -s 5 -d -1 -p AODV -e 44 -c 2 -a 0 -i 0 -k RTR
h -t 0.000000000 -s 5 -d -1 -p AODV -e 44 -c 2 -a 0 -i 0 -k RTR
+ -t 0.000000000 -s 6 -d -1 -p AODV -e 44 -c 2 -a 0 -i 0 -k RTR 
- -t 0.000000000 -s 6 -d -1 -p AODV -e 44 -c 2 -a 0 -i 0 -k RTR
h -t 0.000000000 -s 6 -d -1 -p AODV -e 44 -c 2 -a 0 -i 0 -k RTR
+ -t 0.000000000 -s 7 -d -1 -p AODV -e 44 -c 2 -a 0 -i 0 -k RTR 
- -t 0.000000000 -s 7 -d -1 -p AODV -e 44 -c 2 -a 0 -i 0 -k RTR
h -t 0.000000000 -s 7 -d -1 -p AODV -e 44 -c 2 -a 0 -i 0 -k RTR
+ -t 0.000000000 -s 8 -d -1 -p AODV -e 44 -c 2 -a 0 -i 0 -k RTR 
- -t 0.000000000 -s 8 -d -1 -p AODV -e 44 -c 2 -a 0 -i 0 -k RTR
h -t 0.000000000 -s 8 -d -1 -p AODV -e 44 -c 2 -a 0 -i 0 -k RTR
+ -t 0.000000000 -s 9 -d -1 -p AODV -e 44 -c 2 -a 0 -i 0 -k RTR 
- -t 0.000000000 -s 9 -d -1 -p AODV -e 44 -c 2 -a 0 -i 0 -k RTR
h -t 0.000000000 -s 9 -d -1 -p AODV -e 44 -c 2 -a 0 -i 0 -k RTR
+ -t 0.000000000 -s 10 -d -1 -p AODV -e 44 -c 2 -a 0 -i 0 -k RTR 
- -t 0.000000000 -s 10 -d -1 -p AODV -e 44 -c 2 -a 0 -i 0 -k RTR
h -t 0.000000000 -s 10 -d -1 -p AODV -e 44 -c 2 -a 0 -i 0 -k RTR
+ -t 0.000000000 -s 11 -d -1 -p AODV -e 44 -c 2 -a 0 -i 0 -k RTR 
- -t 0.000000000 -s 11 -d -1 -p AODV -e 44 -c 2 -a 0 -i 0 -k RTR
h -t 0.000000000 -s 11 -d -1 -p AODV -e 44 -c 2 -a 0 -i 0 -k RTR
+ -t 0.000000000 -s 12 -d -1 -p AODV -e 44 -c 2 -a 0 -i 0 -k RTR 
- -t 0.000000000 -s 12 -d -1 -p AODV -e 44 -c 2 -a 0 -i 0 -k RTR
h -t 0.000000000 -s 12 -d -1 -p AODV -e 44 -c 2 -a 0 -i 0 -k RTR
+ -t 0.000000000 -s 13 -d -1 -p AODV -e 44 -c 2 -a 0 -i 0 -k RTR 
- -t 0.000000000 -s 13 -d -1 -p AODV -e 44 -c 2 -a 0 -i 0 -k RTR
h -t 0.000000000 -s 13 -d -1 -p AODV -e 44 -c 2 -a 0 -i 0 -k RTR
+ -t 0.000000000 -s 14 -d -1 -p AODV -e 44 -c 2 -a 0 -i 0 -k RTR 
- -t 0.000000000 -s 14 -d -1 -p AODV -e 44 -c 2 -a 0 -i 0 -k RTR
h -t 0.000000000 -s 14 -d -1 -p AODV -e 44 -c 2 -a 0 -i 0 -k RTR
+ -t 0.000000000 -s 15 -d -1 -p AODV -e 44 -c 2 -a 0 -i 0 -k RTR 
- -t 0.000000000 -s 15 -d -1 -p AODV -e 44 -c 2 -a 0 -i 0 -k RTR
h -t 0.000000000 -s 15 -d -1 -p AODV -e 44 -c 2 -a 0 -i 0 -k RTR
+ -t 0.000000000 -s 16 -d -1 -p AODV -e 44 -c 2 -a 0 -i 0 -k RTR 
- -t 0.000000000 -s 16 -d -1 -p AODV -e 44 -c 2 -a 0 -i 0 -k RTR
h -t 0.000000000 -s 16 -d -1 -p AODV -e 44 -c 2 -a 0 -i 0 -k RTR
+ -t 0.000000000 -s 17 -d -1 -p AODV -e 44 -c 2 -a 0 -i 0 -k RTR 
- -t 0.000000000 -s 17 -d -1 -p AODV -e 44 -c 2 -a 0 -i 0 -k RTR
h -t 0.000000000 -s 17 -d -1 -p AODV -e 44 -c 2 -a 0 -i 0 -k RTR
+ -t 0.000000000 -s 18 -d -1 -p AODV -e 44 -c 2 -a 0 -i 0 -k RTR 
- -t 0.000000000 -s 18 -d -1 -p AODV -e 44 -c 2 -a 0 -i 0 -k RTR
h -t 0.000000000 -s 18 -d -1 -p AODV -e 44 -c 2 -a 0 -i 0 -k RTR
+ -t 0.000000000 -s 19 -d -1 -p AODV -e 44 -c 2 -a 0 -i 0 -k RTR 
- -t 0.000000000 -s 19 -d -1 -p AODV -e 44 -c 2 -a 0 -i 0 -k RTR
h -t 0.000000000 -s 19 -d -1 -p AODV -e 44 -c 2 -a 0 -i 0 -k RTR
+ -t 0.000000000 -s 20 -d -1 -p AODV -e 44 -c 2 -a 0 -i 0 -k RTR 
- -t 0.000000000 -s 20 -d -1 -p AODV -e 44 -c 2 -a 0 -i 0 -k RTR
h -t 0.000000000 -s 20 -d -1 -p AODV -e 44 -c 2 -a 0 -i 0 -k RTR
+ -t 0.000000000 -s 21 -d -1 -p AODV -e 44 -c 2 -a 0 -i 0 -k RTR 
- -t 0.000000000 -s 21 -d -1 -p AODV -e 44 -c 2 -a 0 -i 0 -k RTR
h -t 0.000000000 -s 21 -d -1 -p AODV -e 44 -c 2 -a 0 -i 0 -k RTR
+ -t 0.000000000 -s 22 -d -1 -p AODV -e 44 -c 2 -a 0 -i 0 -k RTR 
- -t 0.000000000 -s 22 -d -1 -p AODV -e 44 -c 2 -a 0 -i 0 -k RTR
h -t 0.000000000 -s 22 -d -1 -p AODV -e 44 -c 2 -a 0 -i 0 -k RTR
+ -t 0.000000000 -s 23 -d -1 -p AODV -e 44 -c 2 -a 0 -i 0 -k RTR 
- -t 0.000000000 -s 23 -d -1 -p AODV -e 44 -c 2 -a 0 -i 0 -k RTR
h -t 0.000000000 -s 23 -d -1 -p AODV -e 44 -c 2 -a 0 -i 0 -k RTR
+ -t 0.000000000 -s 24 -d -1 -p AODV -e 44 -c 2 -a 0 -i 0 -k RTR 
- -t 0.000000000 -s 24 -d -1 -p AODV -e 44 -c 2 -a 0 -i 0 -k RTR
h -t 0.000000000 -s 24 -d -1 -p AODV -e 44 -c 2 -a 0 -i 0 -k RTR
+ -t 0.000000000 -s 25 -d -1 -p AODV -e 44 -c 2 -a 0 -i 0 -k RTR 
- -t 0.000000000 -s 25 -d -1 -p AODV -e 44 -c 2 -a 0 -i 0 -k RTR
h -t 0.000000000 -s 25 -d -1 -p AODV -e 44 -c 2 -a 0 -i 0 -k RTR
+ -t 0.000000000 -s 26 -d -1 -p AODV -e 44 -c 2 -a 0 -i 0 -k RTR 
- -t 0.000000000 -s 26 -d -1 -p AODV -e 44 -c 2 -a 0 -i 0 -k RTR
h -t 0.000000000 -s 26 -d -1 -p AODV -e 44 -c 2 -a 0 -i 0 -k RTR
+ -t 0.000000000 -s 27 -d -1 -p AODV -e 44 -c 2 -a 0 -i 0 -k RTR 
- -t 0.000000000 -s 27 -d -1 -p AODV -e 44 -c 2 -a 0 -i 0 -k RTR
h -t 0.000000000 -s 27 -d -1 -p AODV -e 44 -c 2 -a 0 -i 0 -k RTR
+ -t 0.000000000 -s 28 -d -1 -p AODV -e 44 -c 2 -a 0 -i 0 -k RTR 
- -t 0.000000000 -s 28 -d -1 -p AODV -e 44 -c 2 -a 0 -i 0 -k RTR
h -t 0.000000000 -s 28 -d -1 -p AODV -e 44 -c 2 -a 0 -i 0 -k RTR
+ -t 0.000000000 -s 29 -d -1 -p AODV -e 44 -c 2 -a 0 -i 0 -k RTR 
- -t 0.000000000 -s 29 -d -1 -p AODV -e 44 -c 2 -a 0 -i 0 -k RTR
h -t 0.000000000 -s 29 -d -1 -p AODV -e 44 -c 2 -a 0 -i 0 -k RTR
+ -t 0.000000000 -s 30 -d -1 -p AODV -e 44 -c 2 -a 0 -i 0 -k RTR 
- -t 0.000000000 -s 30 -d -1 -p AODV -e 44 -c 2 -a 0 -i 0 -k RTR
h -t 0.000000000 -s 30 -d -1 -p AODV -e 44 -c 2 -a 0 -i 0 -k RTR
+ -t 0.000000000 -s 31 -d -1 -p AODV -e 44 -c 2 -a 0 -i 0 -k RTR 
- -t 0.000000000 -s 31 -d -1 -p AODV -e 44 -c 2 -a 0 -i 0 -k RTR
h -t 0.000000000 -s 31 -d -1 -p AODV -e 44 -c 2 -a 0 -i 0 -k RTR
+ -t 0.000000000 -s 32 -d -1 -p AODV -e 44 -c 2 -a 0 -i 0 -k RTR 
- -t 0.000000000 -s 32 -d -1 -p AODV -e 44 -c 2 -a 0 -i 0 -k RTR
h -t 0.000000000 -s 32 -d -1 -p AODV -e 44 -c 2 -a 0 -i 0 -k RTR
+ -t 0.000000000 -s 33 -d -1 -p AODV -e 44 -c 2 -a 0 -i 0 -k RTR 
- -t 0.000000000 -s 33 -d -1 -p AODV -e 44 -c 2 -a 0 -i 0 -k RTR
h -t 0.000000000 -s 33 -d -1 -p AODV -e 44 -c 2 -a 0 -i 0 -k RTR
+ -t 0.000000000 -s 34 -d -1 -p AODV -e 44 -c 2 -a 0 -i 0 -k RTR 
- -t 0.000000000 -s 34 -d -1 -p AODV -e 44 -c 2 -a 0 -i 0 -k RTR
h -t 0.000000000 -s 34 -d -1 -p AODV -e 44 -c 2 -a 0 -i 0 -k RTR
+ -t 0.000000000 -s 35 -d -1 -p AODV -e 44 -c 2 -a 0 -i 0 -k RTR 
- -t 0.000000000 -s 35 -d -1 -p AODV -e 44 -c 2 -a 0 -i 0 -k RTR
h -t 0.000000000 -s 35 -d -1 -p AODV -e 44 -c 2 -a 0 -i 0 -k RTR
+ -t 0.000000000 -s 36 -d -1 -p AODV -e 44 -c 2 -a 0 -i 0 -k RTR 
- -t 0.000000000 -s 36 -d -1 -p AODV -e 44 -c 2 -a 0 -i 0 -k RTR
h -t 0.000000000 -s 36 -d -1 -p AODV -e 44 -c 2 -a 0 -i 0 -k RTR
+ -t 0.000000000 -s 37 -d -1 -p AODV -e 44 -c 2 -a 0 -i 0 -k RTR 
- -t 0.000000000 -s 37 -d -1 -p AODV -e 44 -c 2 -a 0 -i 0 -k RTR
h -t 0.000000000 -s 37 -d -1 -p AODV -e 44 -c 2 -a 0 -i 0 -k RTR
+ -t 0.000000000 -s 38 -d -1 -p AODV -e 44 -c 2 -a 0 -i 0 -k RTR 
- -t 0.000000000 -s 38 -d -1 -p AODV -e 44 -c 2 -a 0 -i 0 -k RTR
h -t 0.000000000 -s 38 -d -1 -p AODV -e 44 -c 2 -a 0 -i 0 -k RTR
+ -t 0.000000000 -s 39 -d -1 -p AODV -e 44 -c 2 -a 0 -i 0 -k RTR 
- -t 0.000000000 -s 39 -d -1 -p AODV -e 44 -c 2 -a 0 -i 0 -k RTR
h -t 0.000000000 -s 39 -d -1 -p AODV -e 44 -c 2 -a 0 -i 0 -k RTR
+ -t 0.000000000 -s 0 -d -1 -p PHENOM -e 0 -c 2 -a 0 -i 0 -k RTR 
- -t 0.000000000 -s 0 -d -1 -p PHENOM -e 0 -c 2 -a 0 -i 0 -k RTR
h -t 0.000000000 -s 0 -d -1 -p PHENOM -e 0 -c 2 -a 0 -i 0 -k RTR
+ -t 0.000075000 -s 12 -d -1 -p AODV -e 96 -c 2 -a 0 -i 0 -k MAC 
- -t 0.000075000 -s 12 -d -1 -p AODV -e 96 -c 2 -a 0 -i 0 -k MAC
h -t 0.000075000 -s 12 -d -1 -p AODV -e 96 -c 2 -a 0 -i 0 -k MAC
+ -t 0.000075000 -s 19 -d -1 -p AODV -e 96 -c 2 -a 0 -i 0 -k MAC 
- -t 0.000075000 -s 19 -d -1 -p AODV -e 96 -c 2 -a 0 -i 0 -k MAC
h -t 0.000075000 -s 19 -d -1 -p AODV -e 96 -c 2 -a 0 -i 0 -k MAC
d -t 0.000075357 -s 13 -d -1 -p AODV -e 96 -c 2 -a 0 -i 0 -k MAC
d -t 0.000075478 -s 5 -d -1 -p AODV -e 96 -c 2 -a 0 -i 0 -k MAC
d -t 0.000075603 -s 28 -d -1 -p AODV -e 96 -c 2 -a 0 -i 0 -k MAC
d -t 0.000075717 -s 38 -d -1 -p AODV -e 96 -c 2 -a 0 -i 0 -k MAC
d -t 0.000075809 -s 1 -d -1 -p AODV -e 96 -c 2 -a 0 -i 0 -k MAC
d -t 0.000075982 -s 3 -d -1 -p AODV -e 96 -c 2 -a 0 -i 0 -k MAC
d -t 0.000076060 -s 7 -d -1 -p AODV -e 96 -c 2 -a 0 -i 0 -k MAC
d -t 0.000076216 -s 36 -d -1 -p AODV -e 96 -c 2 -a 0 -i 0 -k MAC
+ -t 0.000135000 -s 0 -d -1 -p PHENOM -e 52 -c 2 -a 0 -i 0 -k MAC 
- -t 0.000135000 -s 0 -d -1 -p PHENOM -e 52 -c 2 -a 0 -i 0 -k MAC
h -t 0.000135000 -s 0 -d -1 -p PHENOM -e 52 -c 2 -a 0 -i 0 -k MAC
r -t 0.000551000 -s 1 -d -1 -p PHENOM -e 0 -c 2 -a 0 -i 0 -k MAC
r -t 0.000551378 -s 9 -d -1 -p PHENOM -e 0 -c 2 -a 0 -i 0 -k MAC
r -t 0.000551382 -s 7 -d -1 -p PHENOM -e 0 -c 2 -a 0 -i 0 -k MAC
r -t 0.000551427 -s 5 -d -1 -p PHENOM -e 0 -c 2 -a 0 -i 0 -k MAC
r -t 0.000551510 -s 3 -d -1 -p PHENOM -e 0 -c 2 -a 0 -i 0 -k MAC
r -t 0.000551563 -s 8 -d -1 -p PHENOM -e 0 -c 2 -a 0 -i 0 -k MAC
r -t 0.000551566 -s 18 -d -1 -p PHENOM -e 0 -c 2 -a 0 -i 0 -k MAC
r -t 0.000551612 -s 2 -d -1 -p PHENOM -e 0 -c 2 -a 0 -i 0 -k MAC
r -t 0.000551641 -s 4 -d -1 -p PHENOM -e 0 -c 2 -a 0 -i 0 -k MAC
r -t 0.000551645 -s 15 -d -1 -p PHENOM -e 0 -c 2 -a 0 -i 0 -k MAC
r -t 0.000551664 -s 6 -d -1 -p PHENOM -e 0 -c 2 -a 0 -i 0 -k MAC
r -t 0.000551664 -s 17 -d -1 -p PHENOM -e 0 -c 2 -a 0 -i 0 -k MAC
r -t 0.000551689 -s 13 -d -1 -p PHENOM -e 0 -c 2 -a 0 -i 0 -k MAC
r -t 0.000551693 -s 16 -d -1 -p PHENOM -e 0 -c 2 -a 0 -i 0 -k MAC
r -t 0.000551697 -s 19 -d -1 -p PHENOM -e 0 -c 2 -a 0 -i 0 -k MAC
r -t 0.000551704 -s 34 -d -1 -p PHENOM -e 0 -c 2 -a 0 -i 0 -k MAC
r -t 0.000551801 -s 10 -d -1 -p PHENOM -e 0 -c 2 -a 0 -i 0 -k MAC
r -t 0.000551809 -s 12 -d -1 -p PHENOM -e 0 -c 2 -a 0 -i 0 -k MAC
r -t 0.000551820 -s 11 -d -1 -p PHENOM -e 0 -c 2 -a 0 -i 0 -k MAC
r -t 0.000843289 -s 18 -d -1 -p AODV -e 44 -c 2 -a 0 -i 0 -k MAC
r -t 0.000843296 -s 4 -d -1 -p AODV -e 44 -c 2 -a 0 -i 0 -k MAC
r -t 0.000843335 -s 27 -d -1 -p AODV -e 44 -c 2 -a 0 -i 0 -k MAC
d -t 0.000843357 -s 13 -d -1 -p AODV -e 96 -c 2 -a 0 -i 0 -k MAC
r -t 0.000843365 -s 10 -d -1 -p AODV -e 44 -c 2 -a 0 -i 0 -k MAC
r -t 0.000843451 -s 11 -d -1 -p AODV -e 44 -c 2 -a 0 -i 0 -k MAC
d -t 0.000843478 -s 5 -d -1 -p AODV -e 96 -c 2 -a 0 -i 0 -k MAC
r -t 0.000843479 -s 29 -d -1 -p AODV -e 44 -c 2 -a 0 -i 0 -k MAC
r -t 0.000843575 -s 37 -d -1 -p AODV -e 44 -c 2 -a 0 -i 0 -k MAC
r -t 0.000843580 -s 39 -d -1 -p AODV -e 44 -c 2 -a 0 -i 0 -k MAC
r -t 0.000843595 -s 6 -d -1 -p AODV -e 44 -c 2 -a 0 -i 0 -k MAC
d -t 0.000843603 -s 28 -d -1 -p AODV -e 96 -c 2 -a 0 -i 0 -k MAC
r -t 0.000843708 -s 30 -d -1 -p AODV -e 44 -c 2 -a 0 -i 0 -k MAC
d -t 0.000843717 -s 38 -d -1 -p AODV -e 96 -c 2 -a 0 -i 0 -k MAC
r -t 0.000843761 -s 20 -d -1 -p AODV -e 44 -c 2 -a 0 -i 0 -k MAC
d -t 0.000843809 -s 1 -d -1 -p AODV -e 96 -c 2 -a 0 -i 0 -k MAC
r -t 0.000868289 -s 18 -d -1 -p AODV -e 44 -c 2 -a 0 -i 0 -k RTR
r -t 0.000868296 -s 4 -d -1 -p AODV -e 44 -c 2 -a 0 -i 0 -k RTR
r -t 0.000868335 -s 27 -d -1 -p AODV -e 44 -c 2 -a 0 -i 0 -k RTR
r -t 0.000868365 -s 10 -d -1 -p AODV -e 44 -c 2 -a 0 -i 0 -k RTR
r -t 0.000868451 -s 11 -d -1 -p AODV -e 44 -c 2 -a 0 -i 0 -k RTR
r -t 0.000868479 -s 29 -d -1 -p AODV -e 44 -c 2 -a 0 -i 0 -k RTR
r -t 0.000868575 -s 37 -d -1 -p AODV -e 44 -c 2 -a 0 -i 0 -k RTR
r -t 0.000868580 -s 39 -d -1 -p AODV -e 44 -c 2 -a 0 -i 0 -k RTR
r -t 0.000868595 -s 6 -d -1 -p AODV -e 44 -c 2 -a 0 -i 0 -k RTR
r -t 0.000868708 -s 30 -d -1 -p AODV -e 44 -c 2 -a 0 -i 0 -k RTR
r -t 0.000868761 -s 20 -d -1 -p AODV -e 44 -c 2 -a 0 -i 0 -k RTR
+ -t 0.001258346 -s 30 -d -1 -p AODV -e 96 -c 2 -a 0 -i 0 -k MAC 
- -t 0.001258346 -s 30 -d -1 -p AODV -e 96 -c 2 -a 0 -i 0 -k MAC
h -t 0.001258346 -s 30 -d -1 -p AODV -e 96 -c 2 -a 0 -i 0 -k MAC
+ -t 0.001398234 -s 34 -d -1 -p AODV -e 96 -c 2 -a 0 -i 0 -k MAC 
- -t 0.001398234 -s 34 -d -1 -p AODV -e 96 -c 2 -a 0 -i 0 -k MAC
h -t 0.001398234 -s 34 -d -1 -p AODV -e 96 -c 2 -a 0 -i 0 -k MAC
d -t 0.001399469 -s 19 -d -1 -p AODV -e 96 -c 2 -a 0 -i 0 -k MAC
r -t 0.002026630 -s 29 -d -1 -p AODV -e 44 -c 2 -a 0 -i 0 -k MAC
r -t 0.002026754 -s 10 -d -1 -p AODV -e 44 -c 2 -a 0 -i 0 -k MAC
r -t 0.002026809 -s 20 -d -1 -p AODV -e 44 -c 2 -a 0 -i 0 -k MAC
r -t 0.002026921 -s 39 -d -1 -p AODV -e 44 -c 2 -a 0 -i 0 -k MAC
r -t 0.002026970 -s 6 -d -1 -p AODV -e 44 -c 2 -a 0 -i 0 -k MAC
r -t 0.002026993 -s 18 -d -1 -p AODV -e 44 -c 2 -a 0 -i 0 -k MAC
r -t 0.002051630 -s 29 -d -1 -p AODV -e 44 -c 2 -a 0 -i 0 -k RTR
r -t 0.002051754 -s 10 -d -1 -p AODV -e 44 -c 2 -a 0 -i 0 -k RTR
r -t 0.002051809 -s 20 -d -1 -p AODV -e 44 -c 2 -a 0 -i 0 -k RTR
r -t 0.002051921 -s 39 -d -1 -p AODV -e 44 -c 2 -a 0 -i 0 -k RTR
r -t 0.002051970 -s 6 -d -1 -p AODV -e 44 -c 2 -a 0 -i 0 -k RTR
r -t 0.002051993 -s 18 -d -1 -p AODV -e 44 -c 2 -a 0 -i 0 -k RTR
d -t 0.002166487 -s 3 -d -1 -p AODV -e 96 -c 2 -a 0 -i 0 -k MAC
d -t 0.002166520 -s 2 -d -1 -p AODV -e 96 -c 2 -a 0 -i 0 -k MAC
r -t 0.002166539 -s 36 -d -1 -p AODV -e 44 -c 2 -a 0 -i 0 -k MAC
r -t 0.002166634 -s 26 -d -1 -p AODV -e 44 -c 2 -a 0 -i 0 -k MAC
d -t 0.002166783 -s 11 -d -1 -p AODV -e 96 -c 2 -a 0 -i 0 -k MAC
d -t 0.002166847 -s 4 -d -1 -p AODV -e 96 -c 2 -a 0 -i 0 -k MAC
d -t 0.002166874 -s 15 -d -1 -p AODV -e 96 -c 2 -a 0 -i 0 -k MAC
d -t 0.002166896 -s 9 -d -1 -p AODV -e 96 -c 2 -a 0 -i 0 -k MAC
r -t 0.002166920 -s 25 -d -1 -p AODV -e 44 -c 2 -a 0 -i 0 -k MAC
d -t 0.002166938 -s 1 -d -1 -p AODV -e 96 -c 2 -a 0 -i 0 -k MAC
r -t 0.002166956 -s 35 -d -1 -p AODV -e 44 -c 2 -a 0 -i 0 -k MAC
r -t 0.002191539 -s 36 -d -1 -p AODV -e 44 -c 2 -a 0 -i 0 -k RTR
r -t 0.002191634 -s 26 -d -1 -p AODV -e 44 -c 2 -a 0 -i 0 -k RTR
r -t 0.002191920 -s 25 -d -1 -p AODV -e 44 -c 2 -a 0 -i 0 -k RTR
r -t 0.002191956 -s 35 -d -1 -p AODV -e 44 -c 2 -a 0 -i 0 -k RTR
+ -t 0.002396634 -s 26 -d -1 -p AODV -e 96 -c 2 -a 0 -i 0 -k MAC 
- -t 0.002396634 -s 26 -d -1 -p AODV -e 96 -c 2 -a 0 -i 0 -k MAC
h -t 0.002396634 -s 26 -d -1 -p AODV -e 96 -c 2 -a 0 -i 0 -k MAC
+ -t 0.002821772 -s 38 -d -1 -p AODV -e 96 -c 2 -a 0 -i 0 -k MAC 
- -t 0.002821772 -s 38 -d -1 -p AODV -e 96 -c 2 -a 0 -i 0 -k MAC
h -t 0.002821772 -s 38 -d -1 -p AODV -e 96 -c 2 -a 0 -i 0 -k MAC
r -t 0.003164929 -s 2 -d -1 -p AODV -e 44 -c 2 -a 0 -i 0 -k MAC
r -t 0.003164957 -s 35 -d -1 -p AODV -e 44 -c 2 -a 0 -i 0 -k MAC
r -t 0.003164996 -s 25 -d -1 -p AODV -e 44 -c 2 -a 0 -i 0 -k MAC
r -t 0.003165034 -s 34 -d -1 -p AODV -e 44 -c 2 -a 0 -i 0 -k MAC
r -t 0.003165125 -s 15 -d -1 -p AODV -e 44 -c 2 -a 0 -i 0 -k MAC
r -t 0.003165249 -s 3 -d -1 -p AODV -e 44 -c 2 -a 0 -i 0 -k MAC
r -t 0.003165307 -s 36 -d -1 -p AODV -e 44 -c 2 -a 0 -i 0 -k MAC
r -t 0.003165316 -s 9 -d -1 -p AODV -e 44 -c 2 -a 0 -i 0 -k MAC
r -t 0.003165355 -s 14 -d -1 -p AODV -e 44 -c 2 -a 0 -i 0 -k MAC
r -t 0.003165421 -s 24 -d -1 -p AODV -e 44 -c 2 -a 0 -i 0 -k MAC
r -t 0.003189929 -s 2 -d -1 -p AODV -e 44 -c 2 -a 0 -i 0 -k RTR
r -t 0.003189957 -s 35 -d -1 -p AODV -e 44 -c 2 -a 0 -i 0 -k RTR
r -t 0.003189996 -s 25 -d -1 -p AODV -e 44 -c 2 -a 0 -i 0 -k RTR
r -t 0.003190034 -s 34 -d -1 -p AODV -e 44 -c 2 -a 0 -i 0 -k RTR
r -t 0.003190125 -s 15 -d -1 -p AODV -e 44 -c 2 -a 0 -i 0 -k RTR
r -t 0.003190249 -s 3 -d -1 -p AODV -e 44 -c 2 -a 0 -i 0 -k RTR
r -t 0.003190307 -s 36 -d -1 -p AODV -e 44 -c 2 -a 0 -i 0 -k RTR
r -t 0.003190316 -s 9 -d -1 -p AODV -e 44 -c 2 -a 0 -i 0 -k RTR
r -t 0.003190355 -s 14 -d -1 -p AODV -e 44 -c 2 -a 0 -i 0 -k RTR
r -t 0.003190421 -s 24 -d -1 -p AODV -e 44 -c 2 -a 0 -i 0 -k RTR
+ -t 0.003374957 -s 35 -d -1 -p AODV -e 96 -c 2 -a 0 -i 0 -k MAC 
- -t 0.003374957 -s 35 -d -1 -p AODV -e 96 -c 2 -a 0 -i 0 -k MAC
h -t 0.003374957 -s 35 -d -1 -p AODV -e 96 -c 2 -a 0 -i 0 -k MAC
d -t 0.003590054 -s 28 -d -1 -p AODV -e 96 -c 2 -a 0 -i 0 -k MAC
d -t 0.003590257 -s 37 -d -1 -p AODV -e 96 -c 2 -a 0 -i 0 -k MAC
d -t 0.003590360 -s 13 -d -1 -p AODV -e 96 -c 2 -a 0 -i 0 -k MAC
d -t 0.003590405 -s 12 -d -1 -p AODV -e 96 -c 2 -a 0 -i 0 -k MAC
d -t 0.003590421 -s 27 -d -1 -p AODV -e 96 -c 2 -a 0 -i 0 -k MAC
r -t 0.003590445 -s 39 -d -1 -p AODV -e 44 -c 2 -a 0 -i 0 -k MAC
d -t 0.003590489 -s 19 -d -1 -p AODV -e 96 -c 2 -a 0 -i 0 -k MAC
r -t 0.003615445 -s 39 -d -1 -p AODV -e 44 -c 2 -a 0 -i 0 -k RTR
+ -t 0.004040445 -s 39 -d -1 -p AODV -e 96 -c 2 -a 0 -i 0 -k MAC 
- -t 0.004040445 -s 39 -d -1 -p AODV -e 96 -c 2 -a 0 -i 0 -k MAC
h -t 0.004040445 -s 39 -d -1 -p AODV -e 96 -c 2 -a 0 -i 0 -k MAC
r -t 0.004143223 -s 25 -d -1 -p AODV -e 44 -c 2 -a 0 -i 0 -k MAC
r -t 0.004143280 -s 26 -d -1 -p AODV -e 44 -c 2 -a 0 -i 0 -k MAC
r -t 0.004143507 -s 15 -d -1 -p AODV -e 44 -c 2 -a 0 -i 0 -k MAC
r -t 0.004143507 -s 14 -d -1 -p AODV -e 44 -c 2 -a 0 -i 0 -k MAC
r -t 0.004143512 -s 2 -d -1 -p AODV -e 44 -c 2 -a 0 -i 0 -k MAC
r -t 0.004143672 -s 24 -d -1 -p AODV -e 44 -c 2 -a 0 -i 0 -k MAC
r -t 0.004143678 -s 34 -d -1 -p AODV -e 44 -c 2 -a 0 -i 0 -k MAC
r -t 0.004143775 -s 9 -d -1 -p AODV -e 44 -c 2 -a 0 -i 0 -k MAC
r -t 0.004168223 -s 25 -d -1 -p AODV -e 44 -c 2 -a 0 -i 0 -k RTR
r -t 0.004168280 -s 26 -d -1 -p AODV -e 44 -c 2 -a 0 -i 0 -k RTR
r -t 0.004168507 -s 15 -d -1 -p AODV -e 44 -c 2 -a 0 -i 0 -k RTR
r -t 0.004168507 -s 14 -d -1 -p AODV -e 44 -c 2 -a 0 -i 0 -k RTR
r -t 0.004168512 -s 2 -d -1 -p AODV -e 44 -c 2 -a 0 -i 0 -k RTR
r -t 0.004168672 -s 24 -d -1 -p AODV -e 44 -c 2 -a 0 -i 0 -k RTR
r -t 0.004168678 -s 34 -d -1 -p AODV -e 44 -c 2 -a 0 -i 0 -k RTR
r -t 0.004168775 -s 9 -d -1 -p AODV -e 44 -c 2 -a 0 -i 0 -k RTR
+ -t 0.004253507 -s 15 -d -1 -p AODV -e 96 -c 2 -a 0 -i 0 -k MAC 
- -t 0.004253507 -s 15 -d -1 -p AODV -e 96 -c 2 -a 0 -i 0 -k MAC
h -t 0.004253507 -s 15 -d -1 -p AODV -e 96 -c 2 -a 0 -i 0 -k MAC
d -t 0.004254692 -s 18 -d -1 -p AODV -e 96 -c 2 -a 0 -i 0 -k MAC
d -t 0.004254811 -s 13 -d -1 -p AODV -e 96 -c 2 -a 0 -i 0 -k MAC
r -t 0.004808781 -s 29 -d -1 -p AODV -e 44 -c 2 -a 0 -i 0 -k MAC
r -t 0.004808917 -s 28 -d -1 -p AODV -e 44 -c 2 -a 0 -i 0 -k MAC
r -t 0.004809020 -s 30 -d -1 -p AODV -e 44 -c 2 -a 0 -i 0 -k MAC
r -t 0.004809026 -s 19 -d -1 -p AODV -e 44 -c 2 -a 0 -i 0 -k MAC
r -t 0.004809057 -s 10 -d -1 -p AODV -e 44 -c 2 -a 0 -i 0 -k MAC
r -t 0.004809119 -s 38 -d -1 -p AODV -e 44 -c 2 -a 0 -i 0 -k MAC
r -t 0.004833781 -s 29 -d -1 -p AODV -e 44 -c 2 -a 0 -i 0 -k RTR
r -t 0.004833917 -s 28 -d -1 -p AODV -e 44 -c 2 -a 0 -i 0 -k RTR
r -t 0.004834020 -s 30 -d -1 -p AODV -e 44 -c 2 -a 0 -i 0 -k RTR
r -t 0.004834026 -s 19 -d -1 -p AODV -e 44 -c 2 -a 0 -i 0 -k RTR
r -t 0.004834057 -s 10 -d -1 -p AODV -e 44 -c 2 -a 0 -i 0 -k RTR
r -t 0.004834119 -s 38 -d -1 -p AODV -e 44 -c 2 -a 0 -i 0 -k RTR
r -t 0.005021792 -s 9 -d -1 -p AODV -e 44 -c 2 -a 0 -i 0 -k MAC
r -t 0.005021804 -s 25 -d -1 -p AODV -e 44 -c 2 -a 0 -i 0 -k MAC
r -t 0.005021854 -s 24 -d -1 -p AODV -e 44 -c 2 -a 0 -i 0 -k MAC
r -t 0.005021861 -s 2 -d -1 -p AODV -e 44 -c 2 -a 0 -i 0 -k MAC
r -t 0.005021939 -s 14 -d -1 -p AODV -e 44 -c 2 -a 0 -i 0 -k MAC
r -t 0.005021977 -s 16 -d -1 -p AODV -e 44 -c 2 -a 0 -i 0 -k MAC
r -t 0.005021998 -s 26 -d -1 -p AODV -e 44 -c 2 -a 0 -i 0 -k MAC
r -t 0.005022057 -s 35 -d -1 -p AODV -e 44 -c 2 -a 0 -i 0 -k MAC
r -t 0.005022135 -s 33 -d -1 -p AODV -e 44 -c 2 -a 0 -i 0 -k MAC
d -t 0.005022142 -s 8 -d -1 -p AODV -e 96 -c 2 -a 0 -i 0 -k MAC
r -t 0.005022146 -s 34 -d -1 -p AODV -e 44 -c 2 -a 0 -i 0 -k MAC
d -t 0.005022152 -s 1 -d -1 -p AODV -e 96 -c 2 -a 0 -i 0 -k MAC
r -t 0.005022186 -s 23 -d -1 -p AODV -e 44 -c 2 -a 0 -i 0 -k MAC
d -t 0.005022194 -s 3 -d -1 -p AODV -e 96 -c 2 -a 0 -i 0 -k MAC
r -t 0.005046792 -s 9 -d -1 -p AODV -e 44 -c 2 -a 0 -i 0 -k RTR
r -t 0.005046804 -s 25 -d -1 -p AODV -e 44 -c 2 -a 0 -i 0 -k RTR
r -t 0.005046854 -s 24 -d -1 -p AODV -e 44 -c 2 -a 0 -i 0 -k RTR
r -t 0.005046861 -s 2 -d -1 -p AODV -e 44 -c 2 -a 0 -i 0 -k RTR
r -t 0.005046939 -s 14 -d -1 -p AODV -e 44 -c 2 -a 0 -i 0 -k RTR
r -t 0.005046977 -s 16 -d -1 -p AODV -e 44 -c 2 -a 0 -i 0 -k RTR
r -t 0.005046998 -s 26 -d -1 -p AODV -e 44 -c 2 -a 0 -i 0 -k RTR
r -t 0.005047057 -s 35 -d -1 -p AODV -e 44 -c 2 -a 0 -i 0 -k RTR
r -t 0.005047135 -s 33 -d -1 -p AODV -e 44 -c 2 -a 0 -i 0 -k RTR
r -t 0.005047146 -s 34 -d -1 -p AODV -e 44 -c 2 -a 0 -i 0 -k RTR
r -t 0.005047186 -s 23 -d -1 -p AODV -e 44 -c 2 -a 0 -i 0 -k RTR
+ -t 0.005152186 -s 23 -d -1 -p AODV -e 96 -c 2 -a 0 -i 0 -k MAC 
- -t 0.005152186 -s 23 -d -1 -p AODV -e 96 -c 2 -a 0 -i 0 -k MAC
h -t 0.005152186 -s 23 -d -1 -p AODV -e 96 -c 2 -a 0 -i 0 -k MAC
r -t 0.005920399 -s 16 -d -1 -p AODV -e 44 -c 2 -a 0 -i 0 -k MAC
r -t 0.005920489 -s 32 -d -1 -p AODV -e 44 -c 2 -a 0 -i 0 -k MAC
r -t 0.005920495 -s 8 -d -1 -p AODV -e 44 -c 2 -a 0 -i 0 -k MAC
r -t 0.005920532 -s 33 -d -1 -p AODV -e 44 -c 2 -a 0 -i 0 -k MAC
r -t 0.005920539 -s 22 -d -1 -p AODV -e 44 -c 2 -a 0 -i 0 -k MAC
r -t 0.005920638 -s 24 -d -1 -p AODV -e 44 -c 2 -a 0 -i 0 -k MAC
r -t 0.005920650 -s 31 -d -1 -p AODV -e 44 -c 2 -a 0 -i 0 -k MAC
r -t 0.005920727 -s 17 -d -1 -p AODV -e 44 -c 2 -a 0 -i 0 -k MAC
r -t 0.005920796 -s 9 -d -1 -p AODV -e 44 -c 2 -a 0 -i 0 -k MAC
r -t 0.005920866 -s 15 -d -1 -p AODV -e 44 -c 2 -a 0 -i 0 -k MAC
r -t 0.005920879 -s 14 -d -1 -p AODV -e 44 -c 2 -a 0 -i 0 -k MAC
r -t 0.005920893 -s 7 -d -1 -p AODV -e 44 -c 2 -a 0 -i 0 -k MAC
r -t 0.005920894 -s 21 -d -1 -p AODV -e 44 -c 2 -a 0 -i 0 -k MAC
+ -t 0.005923596 -s 37 -d -1 -p AODV -e 96 -c 2 -a 0 -i 0 -k MAC 
- -t 0.005923596 -s 37 -d -1 -p AODV -e 96 -c 2 -a 0 -i 0 -k MAC
h -t 0.005923596 -s 37 -d -1 -p AODV -e 96 -c 2 -a 0 -i 0 -k MAC
r -t 0.005945399 -s 16 -d -1 -p AODV -e 44 -c 2 -a 0 -i 0 -k RTR
r -t 0.005945489 -s 32 -d -1 -p AODV -e 44 -c 2 -a 0 -i 0 -k RTR
r -t 0.005945495 -s 8 -d -1 -p AODV -e 44 -c 2 -a 0 -i 0 -k RTR
r -t 0.005945532 -s 33 -d -1 -p AODV -e 44 -c 2 -a 0 -i 0 -k RTR
r -t 0.005945539 -s 22 -d -1 -p AODV -e 44 -c 2 -a 0 -i 0 -k RTR
r -t 0.005945638 -s 24 -d -1 -p AODV -e 44 -c 2 -a 0 -i 0 -k RTR
r -t 0.005945650 -s 31 -d -1 -p AODV -e 44 -c 2 -a 0 -i 0 -k RTR
r -t 0.005945727 -s 17 -d -1 -p AODV -e 44 -c 2 -a 0 -i 0 -k RTR
r -t 0.005945796 -s 9 -d -1 -p AODV -e 44 -c 2 -a 0 -i 0 -k RTR
r -t 0.005945866 -s 15 -d -1 -p AODV -e 44 -c 2 -a 0 -i 0 -k RTR
r -t 0.005945879 -s 14 -d -1 -p AODV -e 44 -c 2 -a 0 -i 0 -k RTR
r -t 0.005945893 -s 7 -d -1 -p AODV -e 44 -c 2 -a 0 -i 0 -k RTR
r -t 0.005945894 -s 21 -d -1 -p AODV -e 44 -c 2 -a 0 -i 0 -k RTR
+ -t 0.006090894 -s 21 -d -1 -p AODV -e 96 -c 2 -a 0 -i 0 -k MAC 
- -t 0.006090894 -s 21 -d -1 -p AODV -e 96 -c 2 -a 0 -i 0 -k MAC
h -t 0.006090894 -s 21 -d -1 -p AODV -e 96 -c 2 -a 0 -i 0 -k MAC
d -t 0.006092134 -s 13 -d -1 -p AODV -e 96 -c 2 -a 0 -i 0 -k MAC
d -t 0.006092364 -s 4 -d -1 -p AODV -e 96 -c 2 -a 0 -i 0 -k MAC
r -t 0.006691928 -s 27 -d -1 -p AODV -e 44 -c 2 -a 0 -i 0 -k MAC
r -t 0.006692081 -s 38 -d -1 -p AODV -e 44 -c 2 -a 0 -i 0 -k MAC
r -t 0.006692170 -s 12 -d -1 -p AODV -e 44 -c 2 -a 0 -i 0 -k MAC
r -t 0.006692299 -s 28 -d -1 -p AODV -e 44 -c 2 -a 0 -i 0 -k MAC
r -t 0.006716928 -s 27 -d -1 -p AODV -e 44 -c 2 -a 0 -i 0 -k RTR
r -t 0.006717081 -s 38 -d -1 -p AODV -e 44 -c 2 -a 0 -i 0 -k RTR
r -t 0.006717170 -s 12 -d -1 -p AODV -e 44 -c 2 -a 0 -i 0 -k RTR
r -t 0.006717299 -s 28 -d -1 -p AODV -e 44 -c 2 -a 0 -i 0 -k RTR
+ -t 0.006821928 -s 27 -d -1 -p AODV -e 96 -c 2 -a 0 -i 0 -k MAC 
- -t 0.006821928 -s 27 -d -1 -p AODV -e 96 -c 2 -a 0 -i 0 -k MAC
h -t 0.006821928 -s 27 -d -1 -p AODV -e 96 -c 2 -a 0 -i 0 -k MAC
d -t 0.006823099 -s 18 -d -1 -p AODV -e 96 -c 2 -a 0 -i 0 -k MAC
d -t 0.006823235 -s 10 -d -1 -p AODV -e 96 -c 2 -a 0 -i 0 -k MAC
r -t 0.006859139 -s 17 -d -1 -p AODV -e 44 -c 2 -a 0 -i 0 -k MAC
r -t 0.006859267 -s 22 -d -1 -p AODV -e 44 -c 2 -a 0 -i 0 -k MAC
d -t 0.006859321 -s 6 -d -1 -p AODV -e 96 -c 2 -a 0 -i 0 -k MAC
d -t 0.006859329 -s 20 -d -1 -p AODV -e 96 -c 2 -a 0 -i 0 -k MAC
r -t 0.006859379 -s 31 -d -1 -p AODV -e 44 -c 2 -a 0 -i 0 -k MAC
d -t 0.006859401 -s 7 -d -1 -p AODV -e 96 -c 2 -a 0 -i 0 -k MAC
r -t 0.006859450 -s 8 -d -1 -p AODV -e 44 -c 2 -a 0 -i 0 -k MAC
r -t 0.006859601 -s 23 -d -1 -p AODV -e 44 -c 2 -a 0 -i 0 -k MAC